 Gaussian 09, Revision A.02,
 Gaussian 09:  EM64L-G09RevA.02 11-Jun-2009

 ----------------------------------------------
 #p b3lyp/6-31+g(d,p) geom=connectivity pop=nbo
 ----------------------------------------------

 -------------------
 Title Card Required
 -------------------
 Symbolic Z-matrix:
 Charge =  0 Multiplicity = 1

                         Standard orientation:
 ---------------------------------------------------------------------
 Center     Atomic      Atomic             Coordinates (Angstroms)
 Number     Number       Type             X           Y           Z
 ---------------------------------------------------------------------
      1          7           0       -0.387318    1.368475    0.002816
      2          6           0       -0.413421   -0.023747    0.441978
      3          6           0        0.922109   -0.689594    0.210983
      4          8           0        1.873119   -0.035260   -0.290013
      5          6           0       -1.565670   -0.724024   -0.299102
      6          1           0        0.497212    1.817169   -0.425359
      7          1           0       -1.251150    2.011602    0.086513
      8          1           0       -0.608008   -0.046954    1.530540
      9          1           0       -1.661245   -1.785006   -0.002175
     10          1           0       -2.541566   -0.246572   -0.088016
     11          1           0       -1.426876   -0.705529   -1.397562
     12          1           0        1.059795   -1.717764    0.473298
 ---------------------------------------------------------------------

 SCF Done:  E(RB3LYP) =  -248.494189184     A.U. after   13 cycles

 The electronic state is 1-A.
 Alpha  occ. eigenvalues --  -19.17040 -14.32841 -10.29400 -10.24766 -10.20062
 Alpha  occ. eigenvalues --   -1.04100  -0.87605  -0.75062  -0.67244  -0.58333
 Alpha  occ. eigenvalues --   -0.51791  -0.47771  -0.45412  -0.43853  -0.40896
 Alpha  occ. eigenvalues --   -0.39593  -0.37754  -0.36476  -0.27404  -0.22386
 Alpha virt. eigenvalues --   -0.05678   0.00151   0.01915   0.02730   0.03409
 Alpha virt. eigenvalues --    0.05674   0.06472   0.07114   0.07689   0.09244
 Alpha virt. eigenvalues --    0.11003   0.11415   0.13153   0.14134   0.16288

 Mulliken atomic charges:
              1
     1  N   -0.665549
     2  C    0.056861
     3  C    0.140177
     4  O   -0.396420
     5  C   -0.492446
     6  H    0.322078
     7  H    0.289836
     8  H    0.152714
     9  H    0.138284
    10  H    0.153578
    11  H    0.170314
    12  H    0.130572
 Sum of Mulliken atomic charges =   0.00000

 Dipole moment (field-independent basis, Debye):
    X=             -2.5938    Y=             -0.9343    Z=              0.9604  Tot=              2.9195
 Quadrupole moment (field-independent basis, Debye-Ang):
   XX=            -35.5182   YY=            -28.2934   ZZ=            -32.3428
   XY=             -1.8188   XZ=              0.7343   YZ=             -1.2368

 Summary of Natural Population Analysis:

                                       Natural Population
                Natural  -----------------------------------------------
    Atom  No    Charge         Core      Valence    Rydberg      Total
 -----------------------------------------------------------------------
      N    1   -1.01440      1.99963     5.99334    0.02143     8.01440
      C    2   -0.19183      1.99926     4.17600    0.01657     6.19183
      C    3    0.40063      1.99942     3.56870    0.03124     5.59937
      O    4   -0.55300      1.99983     6.53124    0.02194     8.55300
      C    5   -0.69773      1.99947     4.69020    0.00805     6.69773
      H    6    0.45459      0.00000     0.54299    0.00242     0.54541
      H    7    0.43056      0.00000     0.56781    0.00163     0.56944
      H    8    0.25468      0.00000     0.74284    0.00248     0.74532
      H    9    0.23479      0.00000     0.76357    0.00164     0.76521
      H   10    0.24999      0.00000     0.74900    0.00101     0.75001
      H   11    0.25521      0.00000     0.74329    0.00150     0.74479
      H   12    0.17650      0.00000     0.82012    0.00338     0.82350
 =======================================================================
   * Total *    0.00000      9.99761    29.88910    0.11329    40.00000

 Normal termination of Gaussian 09 at Tue Feb  1 04:59:11 2022.
