 Gaussian 09, Revision A.02,
 Gaussian 09:  EM64L-G09RevA.02 11-Jun-2009

 ----------------------------------------------
 #p b3lyp/6-31+g(d,p) geom=connectivity pop=nbo
 ----------------------------------------------

 -------------------
 Title Card Required
 -------------------
 Symbolic Z-matrix:
 Charge =  1 Multiplicity = 1

                         Standard orientation:
 ---------------------------------------------------------------------
 Center     Atomic      Atomic             Coordinates (Angstroms)
 Number     Number       Type             X           Y           Z
 ---------------------------------------------------------------------
      1          7           0       -3.845077    1.179481   -0.349879
      2          6           0       -2.817996    0.157049   -0.527178
      3          6           0       -3.179817   -1.108099    0.214868
      4          8           0       -4.251633   -1.167718    0.871548
      5          6           0       -1.454085    0.728442   -0.043173
      6          6           0       -0.204750   -0.120106   -0.411366
      7          6           0        1.094857    0.495153    0.134990
      8          7           0        2.258810   -0.349126   -0.265724
      9          6           0        3.527985   -0.105906    0.046390
     10          7           0        3.912520    0.914414    0.759430
     11          7           0        4.433689   -0.927960   -0.380253
     12          1           0       -4.685405    1.013537    0.213170
     13          1           0       -3.769543    2.106171   -0.782726
     14          1           0       -2.763279   -0.090842   -1.603929
     15          1           0       -1.321225    1.749007   -0.454153
     16          1           0       -1.501456    0.879046    1.055517
     17          1           0       -0.314668   -1.151754   -0.016193
     18          1           0       -0.148693   -0.228287   -1.513912
     19          1           0        1.202271    1.532110   -0.250205
     20          1           0        1.024949    0.576480    1.242335
     21          1           0        2.125331   -1.194115   -0.830839
     22          1           0        4.907603    1.030868    0.956343
     23          1           0        3.149464    1.521849    1.065761
     24          1           0        4.111980   -1.721927   -0.936873
     25          1           0        5.403716   -0.723759   -0.130980
     26          1           0       -2.524742   -1.953499    0.182089
 ---------------------------------------------------------------------

 SCF Done:  E(RB3LYP) =  -531.698670988     A.U. after   15 cycles

 The electronic state is 1-A.
 Alpha  occ. eigenvalues --  -19.25610 -14.56954 -14.56596 -14.56543 -14.40727
 Alpha  occ. eigenvalues --  -10.51601 -10.40624 -10.38069 -10.34559 -10.34245
 Alpha  occ. eigenvalues --  -10.32192  -1.23323  -1.12600  -1.10950  -1.10326
 Alpha  occ. eigenvalues --   -0.97619  -0.94058  -0.86706  -0.82775  -0.80372
 Alpha  occ. eigenvalues --   -0.79431  -0.75632  -0.74219  -0.69621  -0.69150
 Alpha  occ. eigenvalues --   -0.67546  -0.66068  -0.64230  -0.62204  -0.60773
 Alpha  occ. eigenvalues --   -0.57072  -0.55896  -0.54136  -0.53286  -0.52000
 Alpha  occ. eigenvalues --   -0.49447  -0.48545  -0.48056  -0.47092  -0.45319
 Alpha  occ. eigenvalues --   -0.45275  -0.35891  -0.31441
 Alpha virt. eigenvalues --   -0.17511  -0.15667  -0.14705  -0.14317  -0.12756
 Alpha virt. eigenvalues --   -0.10493  -0.10285  -0.09837  -0.08136  -0.07104
 Alpha virt. eigenvalues --   -0.06816  -0.06226  -0.06040  -0.05282  -0.04307

 Mulliken atomic charges:
              1
     1  N   -0.677297
     2  C    0.211573
     3  C    0.088750
     4  O   -0.360470
     5  C   -0.457035
     6  C   -0.159794
     7  C   -0.477030
     8  N   -0.379986
     9  C    0.753014
    10  N   -0.597578
    11  N   -0.522037
    12  H    0.335188
    13  H    0.296949
    14  H    0.157947
    15  H    0.155448
    16  H    0.166241
    17  H    0.157752
    18  H    0.168016
    19  H    0.179311
    20  H    0.180128
    21  H    0.310998
    22  H    0.346349
    23  H    0.339665
    24  H    0.326820
    25  H    0.334359
    26  H    0.122716
 Sum of Mulliken atomic charges =   1.00000

 Dipole moment (field-independent basis, Debye):
    X=             16.5356    Y=              0.5396    Z=             -1.3616  Tot=             16.6004
 Quadrupole moment (field-independent basis, Debye-Ang):
   XX=             -7.8601   YY=            -55.9583   ZZ=            -65.3867
   XY=             -8.6015   XZ=              8.0992   YZ=              7.0412

 Summary of Natural Population Analysis:

                                       Natural Population
                Natural  -----------------------------------------------
    Atom  No    Charge         Core      Valence    Rydberg      Total
 -----------------------------------------------------------------------
      N    1   -0.98360      1.99965     5.96189    0.02206     7.98360
      C    2   -0.17757      1.99924     4.16004    0.01830     6.17757
      C    3    0.38925      1.99942     3.58021    0.03111     5.61075
      O    4   -0.52232      1.99983     6.50022    0.02227     8.52232
      C    5   -0.47952      1.99935     4.46560    0.01458     6.47952
      C    6   -0.49625      1.99940     4.48430    0.01254     6.49625
      C    7   -0.29602      1.99937     4.28361    0.01305     6.29602
      N    8   -0.62648      1.99934     5.61260    0.01454     7.62648
      C    9    0.67103      1.99933     3.30509    0.02456     5.32897
      N   10   -0.81958      1.99934     5.80702    0.01322     7.81958
      N   11   -0.81574      1.99933     5.80321    0.01320     7.81574
      H   12    0.45327      0.00000     0.54426    0.00247     0.54673
      H   13    0.42709      0.00000     0.57129    0.00163     0.57291
      H   14    0.25747      0.00000     0.74049    0.00203     0.74253
      H   15    0.25756      0.00000     0.74120    0.00125     0.74244
      H   16    0.26100      0.00000     0.73710    0.00189     0.73900
      H   17    0.24978      0.00000     0.74849    0.00173     0.75022
      H   18    0.25619      0.00000     0.74196    0.00184     0.74381
      H   19    0.25896      0.00000     0.73948    0.00156     0.74104
      H   20    0.26028      0.00000     0.73820    0.00153     0.73972
      H   21    0.45171      0.00000     0.54614    0.00215     0.54829
      H   22    0.46621      0.00000     0.53199    0.00180     0.53379
      H   23    0.46647      0.00000     0.53181    0.00172     0.53353
      H   24    0.45922      0.00000     0.53903    0.00174     0.54078
      H   25    0.45985      0.00000     0.53825    0.00190     0.54015
      H   26    0.17174      0.00000     0.82510    0.00317     0.82826
 =======================================================================
   * Total *    1.00000     21.99359    63.77859    0.22782    86.00000

 Normal termination of Gaussian 09 at Tue Feb  1 05:05:42 2022.
