 Gaussian 09, Revision A.02,
 Gaussian 09:  EM64L-G09RevA.02 11-Jun-2009

 ----------------------------------------------
 #p b3lyp/6-31+g(d,p) geom=connectivity pop=nbo
 ----------------------------------------------

 -------------------
 Title Card Required
 -------------------
 Symbolic Z-matrix:
 Charge =  0 Multiplicity = 1

                         Standard orientation:
 ---------------------------------------------------------------------
 Center     Atomic      Atomic             Coordinates (Angstroms)
 Number     Number       Type             X           Y           Z
 ---------------------------------------------------------------------
      1          7           0        1.904897    1.419019    0.235448
      2          1           0        2.678173    1.261741    0.879556
      3          1           0        2.310911    1.339817   -0.697282
      4          6           0        0.889447    0.388478    0.420586
      5          1           0        0.648070    0.312772    1.488736
      6          6           0       -0.411527    0.805860   -0.299723
      7          1           0       -0.599632    1.853790   -0.033704
      8          1           0       -0.274546    0.778813   -1.389586
      9          6           0       -1.631820   -0.017914    0.107275
     10          8           0       -1.667474   -0.691294    1.132214
     11          7           0       -2.696595    0.061538   -0.744747
     12          1           0       -2.698215    0.662763   -1.556228
     13          1           0       -3.562826   -0.388033   -0.477815
     14          6           0        1.314060   -1.007985   -0.037264
     15          8           0        2.351378   -1.229484   -0.630735
     16          1           0        0.607755   -1.829976    0.194340
 ---------------------------------------------------------------------

 SCF Done:  E(RB3LYP) =  -417.229080957     A.U. after   13 cycles

 The electronic state is 1-A.
 Alpha  occ. eigenvalues --  -19.17000 -19.14240 -14.38449 -14.33486 -10.31706
 Alpha  occ. eigenvalues --  -10.28541 -10.24143 -10.22235  -1.06203  -1.05779
 Alpha  occ. eigenvalues --   -0.92841  -0.90550  -0.78470  -0.69126  -0.61463
 Alpha  occ. eigenvalues --   -0.57922  -0.55599  -0.52447  -0.49909  -0.47821
 Alpha  occ. eigenvalues --   -0.47057  -0.45183  -0.42532  -0.41310  -0.40738
 Alpha  occ. eigenvalues --   -0.38292  -0.36509  -0.29560  -0.28684  -0.27503
 Alpha  occ. eigenvalues --   -0.25310
 Alpha virt. eigenvalues --   -0.04581  -0.01363  -0.00452   0.00373   0.02251
 Alpha virt. eigenvalues --    0.03884   0.04074   0.05293   0.06101   0.06971
 Alpha virt. eigenvalues --    0.07507   0.09010   0.09243   0.10571   0.10910

 Mulliken atomic charges:
              1
     1  N   -0.607239
     2  H    0.298919
     3  H    0.301316
     4  C   -0.018548
     5  H    0.181217
     6  C   -0.272556
     7  H    0.207014
     8  H    0.153794
     9  C    0.381982
    10  O   -0.512206
    11  N   -0.553030
    12  H    0.296824
    13  H    0.321903
    14  C    0.058575
    15  O   -0.375469
    16  H    0.137505
 Sum of Mulliken atomic charges =   0.00000

 Dipole moment (field-independent basis, Debye):
    X=             -2.5885    Y=              1.8585    Z=             -2.0237  Tot=              3.7749
 Quadrupole moment (field-independent basis, Debye-Ang):
   XX=            -44.8273   YY=            -53.8223   ZZ=            -47.9488
   XY=              0.2892   XZ=             10.5344   YZ=             -2.0387

 Summary of Natural Population Analysis:

                                       Natural Population
                Natural  -----------------------------------------------
    Atom  No    Charge         Core      Valence    Rydberg      Total
 -----------------------------------------------------------------------
      N    1   -0.92147      1.99965     5.89745    0.02438     7.92147
      H    2    0.40788      0.00000     0.58989    0.00223     0.59212
      H    3    0.40331      0.00000     0.59369    0.00300     0.59669
      C    4   -0.19597      1.99927     4.17675    0.01995     6.19597
      H    5    0.28137      0.00000     0.71653    0.00209     0.71863
      C    6   -0.55922      1.99921     4.54782    0.01218     6.55922
      H    7    0.29127      0.00000     0.70669    0.00204     0.70873
      H    8    0.25195      0.00000     0.74635    0.00170     0.74805
      C    9    0.67205      1.99942     3.28703    0.04150     5.32795
      O   10   -0.63502      1.99979     6.61299    0.02224     8.63502
      N   11   -0.88452      1.99949     5.87025    0.01478     7.88452
      H   12    0.43008      0.00000     0.56792    0.00200     0.56992
      H   13    0.43920      0.00000     0.55704    0.00376     0.56080
      C   14    0.39979      1.99947     3.56561    0.03513     5.60021
      O   15   -0.55347      1.99980     6.52766    0.02602     8.55347
      H   16    0.17279      0.00000     0.82393    0.00328     0.82721
 =======================================================================
   * Total *    0.00000     15.99610    45.78760    0.21630    62.00000

 Normal termination of Gaussian 09 at Tue Feb  1 05:03:37 2022.
