 Gaussian 09, Revision A.02,
 Gaussian 09:  EM64L-G09RevA.02 11-Jun-2009

 ----------------------------------------------
 #p b3lyp/6-31+g(d,p) geom=connectivity pop=nbo
 ----------------------------------------------

 -------------------
 Title Card Required
 -------------------
 Symbolic Z-matrix:
 Charge = -1 Multiplicity = 1

                         Standard orientation:
 ---------------------------------------------------------------------
 Center     Atomic      Atomic             Coordinates (Angstroms)
 Number     Number       Type             X           Y           Z
 ---------------------------------------------------------------------
      1          7           0        1.680604    1.537997    0.327068
      2          6           0        0.797125    0.346051    0.422750
      3          6           0        1.338032   -1.036901   -0.087550
      4          8           0        2.516061   -1.130987   -0.519947
      5          6           0       -0.503371    0.772457   -0.284502
      6          6           0       -1.758160   -0.095424    0.006490
      7          8           0       -1.686884   -0.855856    0.975420
      8          8           0       -2.694212    0.091022   -0.772390
      9          1           0        2.595216    1.281110   -0.015656
     10          1           0        1.193056    2.258656   -0.185922
     11          1           0        0.576484    0.205857    1.499457
     12          1           0       -0.786652    1.788076    0.048207
     13          1           0       -0.368776    0.849092   -1.375717
     14          1           0        0.704967   -1.899300   -0.067628
 ---------------------------------------------------------------------

 SCF Done:  E(RB3LYP) =  -436.534723824     A.U. after   17 cycles

 The electronic state is 1-A.
 Alpha  occ. eigenvalues --  -19.04770 -18.92092 -18.91635 -14.20390 -10.16862
 Alpha  occ. eigenvalues --  -10.10101 -10.09746 -10.04458  -0.91726  -0.86268
 Alpha  occ. eigenvalues --   -0.77424  -0.76441  -0.61163  -0.53245  -0.45369
 Alpha  occ. eigenvalues --   -0.39501  -0.35403  -0.33178  -0.32306  -0.29772
 Alpha  occ. eigenvalues --   -0.27393  -0.26644  -0.24964  -0.23623  -0.21671
 Alpha  occ. eigenvalues --   -0.19885  -0.14935  -0.12322  -0.07925  -0.06354
 Alpha  occ. eigenvalues --   -0.05930
 Alpha virt. eigenvalues --    0.07122   0.11380   0.13553   0.15170   0.15909
 Alpha virt. eigenvalues --    0.17095   0.18686   0.19238   0.19743   0.20608
 Alpha virt. eigenvalues --    0.21389   0.23209   0.23668   0.24081   0.24317

 Mulliken atomic charges:
              1
     1  N   -0.664588
     2  C    0.188571
     3  C    0.038227
     4  O   -0.445139
     5  C   -0.432003
     6  C    0.381295
     7  O   -0.618603
     8  O   -0.619641
     9  H    0.289417
    10  H    0.277450
    11  H    0.172710
    12  H    0.128894
    13  H    0.149005
    14  H    0.154405
 Sum of Mulliken atomic charges =  -1.00000

 Dipole moment (field-independent basis, Debye):
    X=              6.1353    Y=              2.0648    Z=             -0.5115  Tot=              6.4936
 Quadrupole moment (field-independent basis, Debye-Ang):
   XX=            -89.3559   YY=            -53.5880   ZZ=            -57.0368
   XY=             -1.7346   XZ=             -1.2416   YZ=             -0.5211

 Summary of Natural Population Analysis:

                                       Natural Population
                Natural  -----------------------------------------------
    Atom  No    Charge         Core      Valence    Rydberg      Total
 -----------------------------------------------------------------------
      N    1   -0.95308      1.99965     5.92551    0.02792     7.95308
      C    2   -0.19855      1.99926     4.17891    0.02038     6.19855
      C    3    0.41738      1.99950     3.55135    0.03177     5.58262
      O    4   -0.61579      1.99982     6.59390    0.02207     8.61579
      C    5   -0.58603      1.99922     4.56853    0.01828     6.58603
      C    6    0.76974      1.99956     3.17110    0.05959     5.23026
      O    7   -0.79499      1.99978     6.77187    0.02333     8.79499
      O    8   -0.78598      1.99978     6.76256    0.02363     8.78598
      H    9    0.40392      0.00000     0.59280    0.00329     0.59608
      H   10    0.39768      0.00000     0.59984    0.00248     0.60232
      H   11    0.27450      0.00000     0.72287    0.00263     0.72550
      H   12    0.23957      0.00000     0.75852    0.00192     0.76043
      H   13    0.23951      0.00000     0.75811    0.00237     0.76049
      H   14    0.19211      0.00000     0.80412    0.00376     0.80789
 =======================================================================
   * Total *   -1.00000     15.99657    45.76001    0.24342    62.00000

 1\1\GINC-NODE3\SP\RB3LYP\6-31+G(d,p)\C4H6N1O3(1-)\ROOT\01-Feb-2022\0\\
 #p b3lyp/6-31+g(d,p) geom=connectivity pop=nbo\\Title Card Required\\-
 1,1\N,0,1.884,0.02,1.372\C,0,3.329,0.368,1.336\C,0,3.741,1.883,1.36\O,
 0,2.857665,2.77377968,1.45900202\C,0,3.874,-0.376,0.102\C,0,5.416,-0.5
 48,0.031\O,0,6.04,-0.341,1.075\O,0,5.837,-0.887,-1.076\H,0,1.317,0.849
 ,1.478\H,0,1.676,-0.57,0.579\H,0,3.782,-0.083,2.241\H,0,3.48,-1.409,0.
 092\H,0,3.523,0.08,-0.838\H,0,4.77284053,2.1579633,1.29217451\\Version
 =EM64L-G09RevA.02\State=1-A\HF=-436.5347238\RMSD=3.176e-09\Dipole=-2.3

 Normal termination of Gaussian 09 at Tue Feb  1 05:03:21 2022.
