 Gaussian 09, Revision A.02,
 Gaussian 09:  EM64L-G09RevA.02 11-Jun-2009

 ----------------------------------------------
 #p b3lyp/6-31+g(d,p) geom=connectivity pop=nbo
 ----------------------------------------------

 -------------------
 Title Card Required
 -------------------
 Symbolic Z-matrix:
 Charge =  0 Multiplicity = 1

                         Standard orientation:
 ---------------------------------------------------------------------
 Center     Atomic      Atomic             Coordinates (Angstroms)
 Number     Number       Type             X           Y           Z
 ---------------------------------------------------------------------
      1          7           0       -1.595446    1.352342   -0.044589
      2          6           0       -0.535172    0.412811   -0.399600
      3          6           0       -0.983689   -1.013049   -0.185950
      4          8           0       -2.141645   -1.250416    0.245751
      5          6           0        0.724254    0.763049    0.416716
      6         16           0        2.126544   -0.248363   -0.105604
      7          1           0       -2.556462    1.020258    0.318393
      8          1           0       -1.464961    2.421232   -0.129515
      9          1           0       -0.313880    0.529668   -1.476413
     10          1           0        1.003537    1.824280    0.286167
     11          1           0        0.554739    0.622288    1.504191
     12          1           0        2.138186   -1.062203    0.947580
     13          1           0       -0.316934   -1.821643   -0.401618
 ---------------------------------------------------------------------

 SCF Done:  E(RB3LYP) =  -646.676744556     A.U. after   13 cycles

 The electronic state is 1-A.
 Alpha  occ. eigenvalues --  -88.89153 -19.17450 -14.33788 -10.29656 -10.25498
 Alpha  occ. eigenvalues --  -10.24296  -7.95424  -5.91919  -5.91551  -5.90894
 Alpha  occ. eigenvalues --   -1.04516  -0.88843  -0.80757  -0.72047  -0.65716
 Alpha  occ. eigenvalues --   -0.58388  -0.52885  -0.48785  -0.47371  -0.44749
 Alpha  occ. eigenvalues --   -0.44139  -0.40641  -0.40322  -0.37470  -0.34460
 Alpha  occ. eigenvalues --   -0.28346  -0.25567  -0.23201
 Alpha virt. eigenvalues --   -0.06245  -0.01431  -0.00182   0.01448   0.02434
 Alpha virt. eigenvalues --    0.02613   0.04308   0.05672   0.06639   0.07341
 Alpha virt. eigenvalues --    0.07734   0.09558   0.09793   0.10103   0.10840

 Mulliken atomic charges:
              1
     1  N   -0.646350
     2  C    0.041111
     3  C    0.083212
     4  O   -0.388758
     5  C   -0.440646
     6  S   -0.041595
     7  H    0.324964
     8  H    0.290713
     9  H    0.169731
    10  H    0.190410
    11  H    0.200220
    12  H    0.067705
    13  H    0.149283
 Sum of Mulliken atomic charges =   0.00000

 Dipole moment (field-independent basis, Debye):
    X=              1.2952    Y=              1.4313    Z=              0.2859  Tot=              1.9514
 Quadrupole moment (field-independent basis, Debye-Ang):
   XX=            -54.3388   YY=            -41.4281   ZZ=            -44.3959
   XY=             -5.5309   XZ=              2.5045   YZ=             -0.4519

 Summary of Natural Population Analysis:

                                       Natural Population
                Natural  -----------------------------------------------
    Atom  No    Charge         Core      Valence    Rydberg      Total
 -----------------------------------------------------------------------
      N    1   -1.00976      1.99962     5.98881    0.02133     8.00976
      C    2   -0.19395      1.99920     4.17517    0.01959     6.19395
      C    3    0.39625      1.99941     3.57247    0.03186     5.60375
      O    4   -0.55136      1.99983     6.52955    0.02198     8.55136
      C    5   -0.62087      1.99935     4.60676    0.01476     6.62087
      S    6   -0.05751      9.99931     6.01778    0.04042    16.05751
      H    7    0.45721      0.00000     0.54018    0.00260     0.54279
      H    8    0.43207      0.00000     0.56626    0.00167     0.56793
      H    9    0.26334      0.00000     0.73439    0.00227     0.73666
      H   10    0.27226      0.00000     0.72616    0.00158     0.72774
      H   11    0.27567      0.00000     0.72236    0.00198     0.72433
      H   12    0.14846      0.00000     0.84820    0.00334     0.85154
      H   13    0.18818      0.00000     0.80778    0.00405     0.81182
 =======================================================================
   * Total *    0.00000     19.99672    35.83587    0.16742    56.00000

 Normal termination of Gaussian 09 at Tue Feb  1 05:07:17 2022.
