 Gaussian 09, Revision A.02,
 Gaussian 09:  EM64L-G09RevA.02 11-Jun-2009

 ----------------------------------------------
 #p b3lyp/6-31+g(d,p) geom=connectivity pop=nbo
 ----------------------------------------------

 -------------------
 Title Card Required
 -------------------
 Symbolic Z-matrix:
 Charge =  0 Multiplicity = 1

                         Standard orientation:
 ---------------------------------------------------------------------
 Center     Atomic      Atomic             Coordinates (Angstroms)
 Number     Number       Type             X           Y           Z
 ---------------------------------------------------------------------
      1          7           0       -1.102558   -1.604175    0.197539
      2          6           0       -0.860061   -0.192147    0.479269
      3          6           0       -2.004744    0.661839   -0.011989
      4          8           0       -2.992372    0.125237   -0.577868
      5          6           0        0.527096    0.284299   -0.115212
      6          6           0        1.748902   -0.601248    0.291223
      7          6           0        0.862992    1.765145    0.242373
      8          6           0        3.045669   -0.370197   -0.512438
      9          1           0       -0.395267   -2.372688    0.474223
     10          1           0       -1.999215   -1.942988   -0.299670
     11          1           0       -0.827771   -0.071039    1.577490
     12          1           0        0.438342    0.218098   -1.220432
     13          1           0        1.949531   -0.504432    1.375880
     14          1           0        1.493193   -1.669506    0.151719
     15          1           0        1.804226    2.107462   -0.222929
     16          1           0        0.103250    2.482454   -0.116579
     17          1           0        0.967607    1.916317    1.333580
     18          1           0        3.834269   -1.084710   -0.212912
     19          1           0        2.883355   -0.502332   -1.599468
     20          1           0        3.462192    0.641424   -0.361215
     21          1           0       -1.975963    1.723136    0.121123
 ---------------------------------------------------------------------

 SCF Done:  E(RB3LYP) =  -366.440108699     A.U. after   14 cycles

 The electronic state is 1-A.
 Alpha  occ. eigenvalues --  -19.16722 -14.32843 -10.29077 -10.24479 -10.21508
 Alpha  occ. eigenvalues --  -10.19980 -10.19404 -10.19095  -1.03817  -0.87536
 Alpha  occ. eigenvalues --   -0.80131  -0.74344  -0.69991  -0.65239  -0.59314
 Alpha  occ. eigenvalues --   -0.56874  -0.51612  -0.47699  -0.46893  -0.44911
 Alpha  occ. eigenvalues --   -0.44074  -0.42666  -0.41412  -0.38955  -0.38662
 Alpha  occ. eigenvalues --   -0.37641  -0.36927  -0.34485  -0.33734  -0.33125
 Alpha  occ. eigenvalues --   -0.26973  -0.22334
 Alpha virt. eigenvalues --   -0.05390  -0.00102   0.00689   0.01514   0.02230
 Alpha virt. eigenvalues --    0.03776   0.04331   0.04715   0.05514   0.06395
 Alpha virt. eigenvalues --    0.07425   0.07750   0.08541   0.08802   0.09294

 Mulliken atomic charges:
              1
     1  N   -0.656545
     2  C   -0.021650
     3  C    0.069748
     4  O   -0.389248
     5  C    0.265397
     6  C   -0.142957
     7  C   -0.623832
     8  C   -0.657476
     9  H    0.284148
    10  H    0.324272
    11  H    0.150063
    12  H    0.139468
    13  H    0.137665
    14  H    0.119064
    15  H    0.148264
    16  H    0.133066
    17  H    0.152352
    18  H    0.147288
    19  H    0.150354
    20  H    0.141864
    21  H    0.128696
 Sum of Mulliken atomic charges =   0.00000

 Dipole moment (field-independent basis, Debye):
    X=              2.8638    Y=              0.5580    Z=              1.1260  Tot=              3.1273
 Quadrupole moment (field-independent basis, Debye-Ang):
   XX=            -61.9013   YY=            -48.0392   ZZ=            -53.1939
   XY=             -1.6571   XZ=             -2.5298   YZ=              0.3309

 Summary of Natural Population Analysis:

                                       Natural Population
                Natural  -----------------------------------------------
    Atom  No    Charge         Core      Valence    Rydberg      Total
 -----------------------------------------------------------------------
      N    1   -1.00668      1.99962     5.98714    0.01992     8.00668
      C    2   -0.17157      1.99919     4.15309    0.01929     6.17157
      C    3    0.40233      1.99942     3.56761    0.03064     5.59767
      O    4   -0.55503      1.99983     6.53337    0.02184     8.55503
      C    5   -0.27659      1.99926     4.26263    0.01470     6.27659
      C    6   -0.47321      1.99939     4.46233    0.01150     6.47321
      C    7   -0.70550      1.99949     4.69750    0.00851     6.70550
      C    8   -0.70008      1.99953     4.69323    0.00732     6.70008
      H    9    0.42884      0.00000     0.56943    0.00173     0.57116
      H   10    0.45560      0.00000     0.54182    0.00258     0.54440
      H   11    0.25145      0.00000     0.74606    0.00249     0.74855
      H   12    0.25237      0.00000     0.74552    0.00211     0.74763
      H   13    0.23649      0.00000     0.76185    0.00166     0.76351
      H   14    0.23762      0.00000     0.76051    0.00187     0.76238
      H   15    0.24953      0.00000     0.74941    0.00106     0.75047
      H   16    0.23659      0.00000     0.76226    0.00114     0.76341
      H   17    0.23779      0.00000     0.76071    0.00150     0.76221
      H   18    0.24782      0.00000     0.75116    0.00102     0.75218
      H   19    0.23992      0.00000     0.75888    0.00120     0.76008
      H   20    0.23427      0.00000     0.76464    0.00109     0.76573
      H   21    0.17802      0.00000     0.81910    0.00288     0.82198
 =======================================================================
   * Total *    0.00000     15.99572    47.84823    0.15605    64.00000

 Normal termination of Gaussian 09 at Tue Feb  1 05:07:50 2022.
