 Gaussian 09, Revision A.02,
 Gaussian 09:  EM64L-G09RevA.02 11-Jun-2009

 ----------------------------------------------
 #p b3lyp/6-31+g(d,p) geom=connectivity pop=nbo
 ----------------------------------------------

 -------------------
 Title Card Required
 -------------------
 Symbolic Z-matrix:
 Charge =  0 Multiplicity = 1

                         Standard orientation:
 ---------------------------------------------------------------------
 Center     Atomic      Atomic             Coordinates (Angstroms)
 Number     Number       Type             X           Y           Z
 ---------------------------------------------------------------------
      1          7           0       -2.062021   -1.471949    0.336938
      2          6           0       -1.144052   -0.386923    0.265938
      3          6           0       -1.802083    0.707058   -0.534063
      4          8           0       -1.668117    1.909062   -0.187063
      5          6           0        0.247961   -0.826884   -0.326063
      6          6           0        1.439932    0.206150   -0.143062
      7          6           0        2.668944   -0.227815   -0.906063
      8          6           0        1.800925    0.452160    1.338938
      9          1           0       -2.384076    0.462042   -1.398062
     10          1           0       -0.942063    0.006083    1.272938
     11          1           0        0.541987   -1.741875    0.194938
     12          1           0        0.104970   -1.140888   -1.361062
     13          1           0        1.083905    1.161140   -0.534063
     14          1           0        2.410955   -0.609822   -1.899063
     15          1           0        3.461923    0.523208   -0.926063
     16          1           0        3.104969   -1.097803   -0.410063
     17          1           0        2.572903    1.211182    1.426938
     18          1           0        1.066914    0.838140    2.051938
     19          1           0        2.256949   -0.415827    1.820938
     20          1           0       -1.858996   -2.330943   -0.133062
     21          1           0       -2.911023   -1.375973    0.857938
 ---------------------------------------------------------------------

 SCF Done:  E(RB3LYP) =  -366.445551237     A.U. after   13 cycles

 The electronic state is 1-A.
 Alpha  occ. eigenvalues --  -19.15556 -14.33399 -10.27474 -10.23476 -10.20630
 Alpha  occ. eigenvalues --  -10.20421 -10.18143 -10.17780  -1.02681  -0.90909
 Alpha  occ. eigenvalues --   -0.81145  -0.73667  -0.69068  -0.66769  -0.59227
 Alpha  occ. eigenvalues --   -0.57706  -0.52371  -0.49180  -0.47497  -0.45627
 Alpha  occ. eigenvalues --   -0.43999  -0.43293  -0.39901  -0.39827  -0.38275
 Alpha  occ. eigenvalues --   -0.37233  -0.35748  -0.34209  -0.33680  -0.32431
 Alpha  occ. eigenvalues --   -0.26924  -0.23533
 Alpha virt. eigenvalues --   -0.04698  -0.00197   0.01294   0.01925   0.02826
 Alpha virt. eigenvalues --    0.04073   0.04556   0.04921   0.05299   0.06362
 Alpha virt. eigenvalues --    0.07422   0.08013   0.08518   0.09173   0.10477

 Mulliken atomic charges:
              1
     1  N   -0.693256
     2  C    0.192965
     3  C    0.107836
     4  O   -0.374883
     5  C   -0.543175
     6  C    0.268905
     7  C   -0.566903
     8  C   -0.593801
     9  H    0.130623
    10  H    0.152188
    11  H    0.154249
    12  H    0.139699
    13  H    0.149245
    14  H    0.139325
    15  H    0.151682
    16  H    0.144276
    17  H    0.147581
    18  H    0.148063
    19  H    0.144966
    20  H    0.292870
    21  H    0.307546
 Sum of Mulliken atomic charges =   0.00000

 Dipole moment (field-independent basis, Debye):
    X=              0.3907    Y=             -3.1670    Z=             -0.2840  Tot=              3.2036
 Quadrupole moment (field-independent basis, Debye-Ang):
   XX=            -49.3237   YY=            -57.4328   ZZ=            -50.8641
   XY=              6.3242   XZ=             -0.3874   YZ=              1.2110

 Summary of Natural Population Analysis:

                                       Natural Population
                Natural  -----------------------------------------------
    Atom  No    Charge         Core      Valence    Rydberg      Total
 -----------------------------------------------------------------------
      N    1   -0.95983      1.99960     5.93680    0.02343     7.95983
      C    2   -0.18398      1.99924     4.16431    0.02042     6.18398
      C    3    0.38894      1.99941     3.57823    0.03341     5.61106
      O    4   -0.56472      1.99982     6.54287    0.02203     8.56472
      C    5   -0.45253      1.99936     4.44162    0.01155     6.45253
      C    6   -0.29696      1.99932     4.28425    0.01340     6.29696
      C    7   -0.68892      1.99946     4.68076    0.00870     6.68892
      C    8   -0.70384      1.99950     4.69599    0.00836     6.70384
      H    9    0.16849      0.00000     0.82749    0.00402     0.83151
      H   10    0.25903      0.00000     0.73876    0.00221     0.74097
      H   11    0.24616      0.00000     0.75171    0.00212     0.75384
      H   12    0.23982      0.00000     0.75878    0.00140     0.76018
      H   13    0.25614      0.00000     0.74155    0.00231     0.74386
      H   14    0.24076      0.00000     0.75827    0.00097     0.75924
      H   15    0.24898      0.00000     0.75011    0.00091     0.75102
      H   16    0.23236      0.00000     0.76624    0.00140     0.76764
      H   17    0.24592      0.00000     0.75300    0.00108     0.75408
      H   18    0.24891      0.00000     0.74977    0.00132     0.75109
      H   19    0.23164      0.00000     0.76709    0.00127     0.76836
      H   20    0.41855      0.00000     0.57953    0.00192     0.58145
      H   21    0.42509      0.00000     0.57319    0.00172     0.57491
 =======================================================================
   * Total *    0.00000     15.99572    47.84031    0.16397    64.00000

 Normal termination of Gaussian 09 at Tue Feb  1 05:08:04 2022.
