 Gaussian 09, Revision A.02,
 Gaussian 09:  EM64L-G09RevA.02 11-Jun-2009

 ----------------------------------------------
 #p b3lyp/6-31+g(d,p) geom=connectivity pop=nbo
 ----------------------------------------------

 -------------------
 Title Card Required
 -------------------
 Symbolic Z-matrix:
 Charge =  1 Multiplicity = 1

                         Standard orientation:
 ---------------------------------------------------------------------
 Center     Atomic      Atomic             Coordinates (Angstroms)
 Number     Number       Type             X           Y           Z
 ---------------------------------------------------------------------
      1          7           0       -2.824489   -0.099428    1.097755
      2          6           0       -1.534581    0.034611    0.431919
      3          6           0       -1.499917    1.159185   -0.595338
      4          8           0       -0.571367    1.941107   -0.710748
      5          6           0       -1.152518   -1.319121   -0.208538
      6          6           0        0.238560   -1.419019   -0.862572
      7          6           0        1.440887   -1.112462    0.075722
      8          6           0        2.055295    0.245524   -0.250300
      9          7           0        3.155478    0.607901    0.752923
     10          1           0       -3.568295   -0.398083    0.470172
     11          1           0       -0.796964    0.293043    1.204433
     12          1           0       -1.903156   -1.576583   -0.968070
     13          1           0        0.290391   -0.771644   -1.748521
     14          1           0        2.204677   -1.893688   -0.031291
     15          1           0        1.324583    1.057879   -0.211190
     16          1           0       -1.249123   -2.071391    0.584185
     17          1           0        0.345958   -2.440363   -1.241946
     18          1           0        1.110308   -1.136304    1.124185
     19          1           0        2.538786    0.251389   -1.231557
     20          1           0       -2.395002    1.251443   -1.245564
     21          1           0       -3.118890    0.753630    1.567592
     22          1           0        3.962149    0.042227    0.581768
     23          1           0        2.825451    0.445198    1.682767
     24          1           0        3.396791    1.572759    0.648918
 ---------------------------------------------------------------------

 SCF Done:  E(RB3LYP) =  -422.180298723     A.U. after   13 cycles

 The electronic state is 1-A.
 Alpha  occ. eigenvalues --  -19.28933 -14.65080 -14.44818 -10.41885 -10.40380
 Alpha  occ. eigenvalues --  -10.36102 -10.35470 -10.33503 -10.32315  -1.20451
 Alpha  occ. eigenvalues --   -1.17996  -1.01982  -0.96606  -0.90115  -0.84064
 Alpha  occ. eigenvalues --   -0.80532  -0.79198  -0.77613  -0.73625  -0.70288
 Alpha  occ. eigenvalues --   -0.67291  -0.63648  -0.61698  -0.60752  -0.58669
 Alpha  occ. eigenvalues --   -0.58516  -0.56684  -0.54230  -0.53895  -0.52261
 Alpha  occ. eigenvalues --   -0.50570  -0.48545  -0.47715  -0.46644  -0.40502
 Alpha  occ. eigenvalues --   -0.35804
 Alpha virt. eigenvalues --   -0.18857  -0.16551  -0.12734  -0.12662  -0.11188
 Alpha virt. eigenvalues --   -0.09628  -0.08894  -0.08013  -0.07625  -0.06576
 Alpha virt. eigenvalues --   -0.06196  -0.05083  -0.04478  -0.04169  -0.03628

 Mulliken atomic charges:
              1
     1  N   -0.568543
     2  C   -0.014512
     3  C    0.157755
     4  O   -0.385189
     5  C   -0.383775
     6  C   -0.230875
     7  C   -0.208039
     8  C   -0.302432
     9  N   -0.601919
    10  H    0.299379
    11  H    0.134957
    12  H    0.162862
    13  H    0.152839
    14  H    0.168177
    15  H    0.246320
    16  H    0.187822
    17  H    0.176142
    18  H    0.153124
    19  H    0.204760
    20  H    0.144742
    21  H    0.303861
    22  H    0.403268
    23  H    0.395808
    24  H    0.403471
 Sum of Mulliken atomic charges =   1.00000

 Dipole moment (field-independent basis, Debye):
    X=              9.5870    Y=              0.3237    Z=              2.1225  Tot=              9.8244
 Quadrupole moment (field-independent basis, Debye-Ang):
   XX=             -2.7270   YY=            -54.2011   ZZ=            -51.4423
   XY=              4.3019   XZ=             10.8813   YZ=              6.7566

 Summary of Natural Population Analysis:

                                       Natural Population
                Natural  -----------------------------------------------
    Atom  No    Charge         Core      Valence    Rydberg      Total
 -----------------------------------------------------------------------
      N    1   -0.90816      1.99965     5.88517    0.02334     7.90816
      C    2   -0.18721      1.99923     4.16945    0.01853     6.18721
      C    3    0.41018      1.99944     3.55509    0.03529     5.58982
      O    4   -0.57001      1.99978     6.54513    0.02510     8.57001
      C    5   -0.48024      1.99936     4.46767    0.01321     6.48024
      C    6   -0.48630      1.99940     4.47386    0.01304     6.48630
      C    7   -0.50856      1.99940     4.49607    0.01310     6.50856
      C    8   -0.29865      1.99935     4.28595    0.01335     6.29865
      N    9   -0.79164      1.99974     5.78373    0.00817     7.79164
      H   10    0.40902      0.00000     0.58857    0.00240     0.59098
      H   11    0.23929      0.00000     0.75828    0.00243     0.76071
      H   12    0.26180      0.00000     0.73699    0.00120     0.73820
      H   13    0.25208      0.00000     0.74651    0.00140     0.74792
      H   14    0.26339      0.00000     0.73551    0.00110     0.73661
      H   15    0.29659      0.00000     0.70054    0.00287     0.70341
      H   16    0.27478      0.00000     0.72335    0.00188     0.72522
      H   17    0.27909      0.00000     0.71970    0.00121     0.72091
      H   18    0.24957      0.00000     0.74917    0.00126     0.75043
      H   19    0.27142      0.00000     0.72738    0.00120     0.72858
      H   20    0.17205      0.00000     0.82442    0.00353     0.82795
      H   21    0.41687      0.00000     0.58108    0.00205     0.58313
      H   22    0.47620      0.00000     0.52209    0.00171     0.52380
      H   23    0.47537      0.00000     0.52277    0.00185     0.52463
      H   24    0.48306      0.00000     0.51547    0.00147     0.51694
 =======================================================================
   * Total *    1.00000     17.99535    53.81396    0.19069    72.00000

 Normal termination of Gaussian 09 at Tue Feb  1 05:04:30 2022.
