 Gaussian 09, Revision A.02,
 Gaussian 09:  EM64L-G09RevA.02 11-Jun-2009

 ----------------------------------------------
 #p b3lyp/6-31+g(d,p) geom=connectivity pop=nbo
 ----------------------------------------------

 -------------------
 Title Card Required
 -------------------
 Symbolic Z-matrix:
 Charge =  0 Multiplicity = 1

                         Standard orientation:
 ---------------------------------------------------------------------
 Center     Atomic      Atomic             Coordinates (Angstroms)
 Number     Number       Type             X           Y           Z
 ---------------------------------------------------------------------
      1          7           0        2.556184    0.809804    1.124790
      2          6           0        2.276942   -0.355510    0.290327
      3          6           0        3.556568   -1.007198   -0.175746
      4          8           0        4.668200   -0.527921    0.167967
      5          6           0        1.435446    0.089964   -0.938137
      6          6           0        0.027103    0.592151   -0.603269
      7          6           0       -0.347562    1.943073   -0.447219
      8          6           0       -1.096781   -0.148403   -0.304882
      9          7           0       -1.696465    2.065516   -0.060978
     10          6           0       -2.138449    0.754209    0.022674
     11          6           0       -1.314586   -1.550082   -0.259777
     12          6           0       -3.411017    0.262113    0.386449
     13          6           0       -2.581362   -2.013219    0.096461
     14          6           0       -3.615547   -1.120792    0.413326
     15          1           0        3.489834    1.100533    1.333923
     16          1           0        1.824838    1.364826    1.521950
     17          1           0        1.718634   -1.102253    0.885735
     18          1           0        1.977956    0.869497   -1.509520
     19          1           0        1.329368   -0.748638   -1.653288
     20          1           0        0.334004    2.775242   -0.564783
     21          1           0       -2.218991    2.920358    0.159218
     22          1           0       -0.520779   -2.245107   -0.494622
     23          1           0       -4.207197    0.945465    0.638705
     24          1           0       -2.766632   -3.076816    0.128035
     25          1           0       -4.587459   -1.508212    0.681296
     26          1           0        3.518264   -1.876587   -0.798318
 ---------------------------------------------------------------------

 SCF Done:  E(RB3LYP) =  -611.135250285     A.U. after   15 cycles

 The electronic state is 1-A.
 Alpha  occ. eigenvalues --  -19.16796 -14.40116 -14.31439 -10.29143 -10.24480
 Alpha  occ. eigenvalues --  -10.23378 -10.23248 -10.21189 -10.20016 -10.19623
 Alpha  occ. eigenvalues --  -10.19577 -10.19340 -10.19197 -10.19037  -1.03892
 Alpha  occ. eigenvalues --   -0.98652  -0.88531  -0.84802  -0.80905  -0.75748
 Alpha  occ. eigenvalues --   -0.74378  -0.72176  -0.67570  -0.62800  -0.60758
 Alpha  occ. eigenvalues --   -0.58926  -0.56650  -0.54929  -0.52526  -0.49437
 Alpha  occ. eigenvalues --   -0.48248  -0.47524  -0.45672  -0.44696  -0.44133
 Alpha  occ. eigenvalues --   -0.43772  -0.42963  -0.41246  -0.40375  -0.39203
 Alpha  occ. eigenvalues --   -0.37954  -0.36677  -0.35502  -0.34494  -0.34160
 Alpha  occ. eigenvalues --   -0.28974  -0.27066  -0.23572  -0.22618  -0.21063
 Alpha virt. eigenvalues --   -0.05452  -0.03168  -0.01087   0.00154   0.00564
 Alpha virt. eigenvalues --    0.01155   0.02253   0.02476   0.02897   0.03690
 Alpha virt. eigenvalues --    0.03816   0.04811   0.05145   0.05519   0.06435

 Mulliken atomic charges:
              1
     1  N   -0.693784
     2  C    0.041918
     3  C   -0.007156
     4  O   -0.378479
     5  C   -0.829060
     6  C    1.071737
     7  C   -0.351953
     8  C    0.926200
     9  N   -0.321681
    10  C   -1.104901
    11  C   -0.765644
    12  C    0.657925
    13  C   -0.024550
    14  C   -0.347416
    15  H    0.325893
    16  H    0.301784
    17  H    0.158940
    18  H    0.159566
    19  H    0.135298
    20  H    0.140580
    21  H    0.311765
    22  H    0.115064
    23  H    0.111820
    24  H    0.117971
    25  H    0.119927
    26  H    0.128235
 Sum of Mulliken atomic charges =   0.00000

 Dipole moment (field-independent basis, Debye):
    X=             -3.1931    Y=              1.5862    Z=             -0.2681  Tot=              3.5755
 Quadrupole moment (field-independent basis, Debye-Ang):
   XX=            -98.5667   YY=            -68.8971   ZZ=            -87.0356
   XY=             -5.9826   XZ=             -5.6527   YZ=              3.1599

 Summary of Natural Population Analysis:

                                       Natural Population
                Natural  -----------------------------------------------
    Atom  No    Charge         Core      Valence    Rydberg      Total
 -----------------------------------------------------------------------
      N    1   -0.97849      1.99965     5.95433    0.02451     7.97849
      C    2   -0.17962      1.99921     4.16280    0.01760     6.17962
      C    3    0.40049      1.99942     3.56900    0.03108     5.59951
      O    4   -0.55426      1.99983     6.53236    0.02207     8.55426
      C    5   -0.47707      1.99929     4.46527    0.01251     6.47707
      C    6   -0.10693      1.99893     4.08993    0.01807     6.10693
      C    7   -0.04066      1.99912     4.02060    0.02095     6.04066
      C    8   -0.10779      1.99890     4.09280    0.01610     6.10779
      N    9   -0.58653      1.99933     5.57373    0.01348     7.58653
      C   10    0.15184      1.99902     3.82884    0.02030     5.84816
      C   11   -0.22562      1.99911     4.21161    0.01490     6.22562
      C   12   -0.25709      1.99908     4.24343    0.01458     6.25709
      C   13   -0.26034      1.99916     4.24532    0.01586     6.26034
      C   14   -0.25810      1.99916     4.24247    0.01646     6.25810
      H   15    0.43582      0.00000     0.56164    0.00254     0.56418
      H   16    0.41930      0.00000     0.57815    0.00255     0.58070
      H   17    0.26054      0.00000     0.73728    0.00218     0.73946
      H   18    0.26803      0.00000     0.73010    0.00187     0.73197
      H   19    0.24702      0.00000     0.75102    0.00196     0.75298
      H   20    0.24345      0.00000     0.75486    0.00170     0.75655
      H   21    0.46111      0.00000     0.53660    0.00229     0.53889
      H   22    0.23994      0.00000     0.75821    0.00186     0.76006
      H   23    0.24040      0.00000     0.75802    0.00158     0.75960
      H   24    0.24351      0.00000     0.75505    0.00144     0.75649
      H   25    0.24529      0.00000     0.75325    0.00146     0.75471
      H   26    0.17577      0.00000     0.82087    0.00336     0.82423
 =======================================================================
   * Total *    0.00000     27.98921    71.72753    0.28326   100.00000

 Normal termination of Gaussian 09 at Tue Feb  1 05:07:17 2022.
