 Gaussian 09, Revision A.02,
 Gaussian 09:  EM64L-G09RevA.02 11-Jun-2009

 ----------------------------------------------
 #p b3lyp/6-31+g(d,p) geom=connectivity pop=nbo
 ----------------------------------------------

 -------------------
 Title Card Required
 -------------------
 Symbolic Z-matrix:
 Charge =  0 Multiplicity = 1

                         Standard orientation:
 ---------------------------------------------------------------------
 Center     Atomic      Atomic             Coordinates (Angstroms)
 Number     Number       Type             X           Y           Z
 ---------------------------------------------------------------------
      1          7           0       -2.098594   -1.011730    1.031136
      2          6           0       -2.190392    0.292532    0.381121
      3          6           0       -3.584746    0.539130   -0.143372
      4          8           0       -4.478885   -0.332548    0.012390
      5          6           0       -1.201738    0.385387   -0.817773
      6          6           0        0.289886    0.249063   -0.492951
      7          6           0        1.002844    1.322439    0.048986
      8          6           0        0.944407   -0.963208   -0.731290
      9          6           0        2.354877    1.180527    0.354105
     10          6           0        2.295170   -1.103037   -0.426391
     11          6           0        2.998688   -0.030502    0.116633
     12          8           0        4.324345   -0.166097    0.420209
     13          1           0       -2.947030   -1.676800    1.101498
     14          1           0       -1.179608   -1.369525    1.470125
     15          1           0       -1.962445    1.079745    1.123491
     16          1           0       -1.483806   -0.365468   -1.585279
     17          1           0       -1.341095    1.351876   -1.340882
     18          1           0        0.509341    2.264695    0.242128
     19          1           0        0.401652   -1.804664   -1.141877
     20          1           0        2.904608    2.006245    0.779977
     21          1           0        2.786530   -2.046935   -0.609059
     22          1           0        4.596874   -1.056935    0.194207
     23          1           0       -3.812517    1.455047   -0.647471
 ---------------------------------------------------------------------

 SCF Done:  E(RB3LYP) =  -554.783467428     A.U. after   15 cycles

 The electronic state is 1-A.
 Alpha  occ. eigenvalues --  -19.19693 -19.17003 -14.32858 -10.29344 -10.26363
 Alpha  occ. eigenvalues --  -10.24784 -10.21034 -10.20716 -10.20569 -10.20467
 Alpha  occ. eigenvalues --  -10.20345 -10.20036  -1.07877  -1.04087  -0.88078
 Alpha  occ. eigenvalues --   -0.86390  -0.78142  -0.76472  -0.73552  -0.67112
 Alpha  occ. eigenvalues --   -0.63579  -0.60375  -0.58439  -0.56064  -0.51935
 Alpha  occ. eigenvalues --   -0.50051  -0.48352  -0.47257  -0.45534  -0.44155
 Alpha  occ. eigenvalues --   -0.43853  -0.43456  -0.42213  -0.40990  -0.40426
 Alpha  occ. eigenvalues --   -0.37916  -0.36960  -0.35709  -0.35156  -0.34322
 Alpha  occ. eigenvalues --   -0.27483  -0.26880  -0.23606  -0.22308
 Alpha virt. eigenvalues --   -0.05633  -0.02645  -0.01167  -0.00991   0.00027
 Alpha virt. eigenvalues --    0.01307   0.02064   0.02214   0.03082   0.04388
 Alpha virt. eigenvalues --    0.04863   0.05863   0.05944   0.06602   0.07721

 Mulliken atomic charges:
              1
     1  N   -0.654670
     2  C   -0.051582
     3  C    0.021752
     4  O   -0.380816
     5  C   -0.324124
     6  C    0.707612
     7  C   -0.428812
     8  C   -0.523932
     9  C    0.280071
    10  C    0.116185
    11  C   -0.286944
    12  O   -0.515558
    13  H    0.327074
    14  H    0.298179
    15  H    0.154555
    16  H    0.150147
    17  H    0.138521
    18  H    0.119635
    19  H    0.130615
    20  H    0.133862
    21  H    0.107096
    22  H    0.350066
    23  H    0.131069
 Sum of Mulliken atomic charges =   0.00000

 Dipole moment (field-independent basis, Debye):
    X=              2.2936    Y=              0.1261    Z=             -0.6347  Tot=              2.3831
 Quadrupole moment (field-independent basis, Debye-Ang):
   XX=            -87.3862   YY=            -63.2152   ZZ=            -74.0613
   XY=            -13.3964   XZ=              0.3819   YZ=              0.3845

 Summary of Natural Population Analysis:

                                       Natural Population
                Natural  -----------------------------------------------
    Atom  No    Charge         Core      Valence    Rydberg      Total
 -----------------------------------------------------------------------
      N    1   -1.01311      1.99962     5.99271    0.02078     8.01311
      C    2   -0.17641      1.99920     4.15886    0.01835     6.17641
      C    3    0.40089      1.99942     3.56831    0.03137     5.59911
      O    4   -0.55352      1.99983     6.53169    0.02200     8.55352
      C    5   -0.47794      1.99930     4.46565    0.01299     6.47794
      C    6   -0.07342      1.99905     4.05695    0.01742     6.07342
      C    7   -0.21848      1.99904     4.20506    0.01438     6.21848
      C    8   -0.21813      1.99905     4.20345    0.01562     6.21813
      C    9   -0.28238      1.99904     4.26725    0.01610     6.28238
      C   10   -0.30890      1.99903     4.29496    0.01491     6.30890
      C   11    0.30449      1.99878     3.67397    0.02275     5.69551
      O   12   -0.70674      1.99978     6.68942    0.01754     8.70674
      H   13    0.45475      0.00000     0.54276    0.00249     0.54525
      H   14    0.43661      0.00000     0.56152    0.00187     0.56339
      H   15    0.25533      0.00000     0.74225    0.00242     0.74467
      H   16    0.26023      0.00000     0.73806    0.00171     0.73977
      H   17    0.24652      0.00000     0.75160    0.00189     0.75348
      H   18    0.24357      0.00000     0.75469    0.00173     0.75643
      H   19    0.25049      0.00000     0.74759    0.00192     0.74951
      H   20    0.25565      0.00000     0.74244    0.00192     0.74435
      H   21    0.23600      0.00000     0.76219    0.00181     0.76400
      H   22    0.50732      0.00000     0.48876    0.00391     0.49268
      H   23    0.17717      0.00000     0.81945    0.00338     0.82283
 =======================================================================
   * Total *    0.00000     23.99115    63.75960    0.24925    88.00000

 Normal termination of Gaussian 09 at Tue Feb  1 05:00:12 2022.
