 Gaussian 09, Revision A.02,
 Gaussian 09:  EM64L-G09RevA.02 11-Jun-2009

 ----------------------------------------------
 #p b3lyp/6-31+g(d,p) geom=connectivity pop=nbo
 ----------------------------------------------

 -------------------
 Title Card Required
 -------------------
 Symbolic Z-matrix:
 Charge =  0 Multiplicity = 1

                         Standard orientation:
 ---------------------------------------------------------------------
 Center     Atomic      Atomic             Coordinates (Angstroms)
 Number     Number       Type             X           Y           Z
 ---------------------------------------------------------------------
      1          7           0        0.862996    1.583177   -0.041682
      2          6           0        0.382785    0.290014    0.437334
      3          6           0        1.428813   -0.782001    0.240474
      4          8           0        2.537610   -0.491383   -0.278833
      5          6           0       -0.959573   -0.091718   -0.303974
      6          6           0       -2.140357    0.858982    0.008911
      7          6           0       -1.506731   -1.522949   -0.046419
      8          1           0        1.845771    1.704627   -0.472331
      9          1           0        0.256982    2.474992    0.013429
     10          1           0        0.193197    0.360962    1.523426
     11          1           0       -0.762550   -0.021428   -1.395193
     12          1           0       -2.453467    0.804685    1.068290
     13          1           0       -1.887290    1.913711   -0.203450
     14          1           0       -3.028361    0.627866   -0.610135
     15          1           0       -1.718838   -1.709593    1.023390
     16          1           0       -2.440861   -1.722459   -0.605947
     17          1           0       -0.802965   -2.310094   -0.379602
     18          1           0        1.226911   -1.788408    0.542600
 ---------------------------------------------------------------------

 SCF Done:  E(RB3LYP) =  -327.124606716     A.U. after   13 cycles

 The electronic state is 1-A.
 Alpha  occ. eigenvalues --  -19.16774 -14.32918 -10.29114 -10.24608 -10.21493
 Alpha  occ. eigenvalues --  -10.19458 -10.19272  -1.03868  -0.87620  -0.79469
 Alpha  occ. eigenvalues --   -0.71482  -0.68873  -0.60838  -0.56971  -0.51929
 Alpha  occ. eigenvalues --   -0.47648  -0.46047  -0.44887  -0.43869  -0.41179
 Alpha  occ. eigenvalues --   -0.40359  -0.39093  -0.37924  -0.35840  -0.34341
 Alpha  occ. eigenvalues --   -0.33914  -0.27027  -0.22458
 Alpha virt. eigenvalues --   -0.05390  -0.00153   0.00899   0.02063   0.02384
 Alpha virt. eigenvalues --    0.03973   0.04833   0.05556   0.06394   0.06855
 Alpha virt. eigenvalues --    0.08079   0.08852   0.09321   0.10465   0.11086

 Mulliken atomic charges:
              1
     1  N   -0.655881
     2  C   -0.027604
     3  C    0.052354
     4  O   -0.392603
     5  C    0.310655
     6  C   -0.610524
     7  C   -0.590585
     8  H    0.324482
     9  H    0.285833
    10  H    0.150689
    11  H    0.153868
    12  H    0.148150
    13  H    0.131843
    14  H    0.150449
    15  H    0.150729
    16  H    0.150890
    17  H    0.134962
    18  H    0.132293
 Sum of Mulliken atomic charges =   0.00000

 Dipole moment (field-independent basis, Debye):
    X=             -2.9117    Y=             -0.0575    Z=              0.8299  Tot=              3.0282
 Quadrupole moment (field-independent basis, Debye-Ang):
   XX=            -53.3028   YY=            -41.9002   ZZ=            -45.6055
   XY=              0.8553   XZ=              1.4957   YZ=             -1.3314

 Summary of Natural Population Analysis:

                                       Natural Population
                Natural  -----------------------------------------------
    Atom  No    Charge         Core      Valence    Rydberg      Total
 -----------------------------------------------------------------------
      N    1   -1.00925      1.99962     5.98953    0.02009     8.00925
      C    2   -0.17177      1.99918     4.15338    0.01921     6.17177
      C    3    0.40114      1.99942     3.56853    0.03091     5.59886
      O    4   -0.55507      1.99983     6.53350    0.02174     8.55507
      C    5   -0.29016      1.99928     4.27731    0.01358     6.29016
      C    6   -0.69264      1.99949     4.68441    0.00874     6.69264
      C    7   -0.70503      1.99949     4.69708    0.00846     6.70503
      H    8    0.45590      0.00000     0.54151    0.00259     0.54410
      H    9    0.43019      0.00000     0.56819    0.00163     0.56981
      H   10    0.25319      0.00000     0.74444    0.00236     0.74681
      H   11    0.25952      0.00000     0.73831    0.00218     0.74048
      H   12    0.23601      0.00000     0.76269    0.00130     0.76399
      H   13    0.23604      0.00000     0.76268    0.00127     0.76396
      H   14    0.24810      0.00000     0.75085    0.00105     0.75190
      H   15    0.23687      0.00000     0.76171    0.00142     0.76313
      H   16    0.25078      0.00000     0.74808    0.00113     0.74922
      H   17    0.23690      0.00000     0.76206    0.00104     0.76310
      H   18    0.17929      0.00000     0.81776    0.00295     0.82071
 =======================================================================
   * Total *    0.00000     13.99631    41.86203    0.14166    56.00000

 Normal termination of Gaussian 09 at Tue Feb  1 05:09:30 2022.
