 Gaussian 09, Revision A.02,
 Gaussian 09:  EM64L-G09RevA.02 11-Jun-2009

 ----------------------------------------------
 #p b3lyp/6-31+g(d,p) geom=connectivity pop=nbo
 ----------------------------------------------

 -------------------
 Title Card Required
 -------------------
 Symbolic Z-matrix:
 Charge =  0 Multiplicity = 1

                         Standard orientation:
 ---------------------------------------------------------------------
 Center     Atomic      Atomic             Coordinates (Angstroms)
 Number     Number       Type             X           Y           Z
 ---------------------------------------------------------------------
      1          7           0        2.114774    0.046362    1.464313
      2          6           0        1.424436   -0.271733    0.217244
      3          6           0        2.388120   -0.284256   -0.945100
      4          8           0        3.607483   -0.038776   -0.754143
      5          6           0        0.361628    0.821701    0.020012
      6          6           0       -1.031212    0.262543   -0.016910
      7          7           0       -1.372337   -1.082276    0.106913
      8          6           0       -2.154757    1.058880   -0.185884
      9          6           0       -2.712315   -0.988614    0.005954
     10          7           0       -3.257257    0.245405   -0.173212
     11          1           0        3.176516    0.239195    1.497592
     12          1           0        1.593470    0.102768    2.408679
     13          1           0        1.024845   -1.295091    0.307620
     14          1           0        0.394531    1.586850    0.823356
     15          1           0        0.529816    1.379317   -0.922720
     16          1           0       -2.132314    2.138312   -0.306204
     17          1           0       -4.248336    0.509027   -0.271523
     18          1           0       -3.284281   -1.905867    0.069502
     19          1           0        2.034220   -0.501858   -1.931155
 ---------------------------------------------------------------------

 SCF Done:  E(RB3LYP) =  -473.506598995     A.U. after   15 cycles

 The electronic state is 1-A.
 Alpha  occ. eigenvalues --  -19.15988 -14.42168 -14.33956 -14.31466 -10.28353
 Alpha  occ. eigenvalues --  -10.25784 -10.23095 -10.22429 -10.21832 -10.20239
 Alpha  occ. eigenvalues --   -1.03119  -1.02939  -0.89514  -0.86557  -0.77760
 Alpha  occ. eigenvalues --   -0.72862  -0.67333  -0.63737  -0.58349  -0.58022
 Alpha  occ. eigenvalues --   -0.55427  -0.50861  -0.47318  -0.45186  -0.44771
 Alpha  occ. eigenvalues --   -0.44449  -0.43326  -0.42766  -0.39935  -0.38931
 Alpha  occ. eigenvalues --   -0.36403  -0.35860  -0.30183  -0.29919  -0.26402
 Alpha  occ. eigenvalues --   -0.23242  -0.20699
 Alpha virt. eigenvalues --   -0.04375  -0.01663  -0.00483   0.01019   0.01861
 Alpha virt. eigenvalues --    0.02288   0.02968   0.03382   0.04305   0.04559
 Alpha virt. eigenvalues --    0.05639   0.06698   0.07401   0.07842   0.08346

 Mulliken atomic charges:
              1
     1  N   -0.699384
     2  C    0.077427
     3  C    0.013885
     4  O   -0.390309
     5  C   -0.503280
     6  C    0.075321
     7  N   -0.258708
     8  C   -0.039473
     9  C    0.218420
    10  N   -0.355081
    11  H    0.319800
    12  H    0.289165
    13  H    0.188838
    14  H    0.189494
    15  H    0.147729
    16  H    0.143681
    17  H    0.319109
    18  H    0.131032
    19  H    0.132333
 Sum of Mulliken atomic charges =   0.00000

 Dipole moment (field-independent basis, Debye):
    X=             -6.2537    Y=              1.8131    Z=             -0.2816  Tot=              6.5173
 Quadrupole moment (field-independent basis, Debye-Ang):
   XX=            -56.4984   YY=            -59.6906   ZZ=            -58.5506
   XY=             -2.8908   XZ=              3.4516   YZ=              1.0135

 Summary of Natural Population Analysis:

                                       Natural Population
                Natural  -----------------------------------------------
    Atom  No    Charge         Core      Valence    Rydberg      Total
 -----------------------------------------------------------------------
      N    1   -1.01782      1.99963     5.99674    0.02145     8.01782
      C    2   -0.19335      1.99923     4.17391    0.02021     6.19335
      C    3    0.40367      1.99943     3.56560    0.03130     5.59633
      O    4   -0.55990      1.99982     6.53785    0.02222     8.55990
      C    5   -0.49259      1.99921     4.48143    0.01195     6.49259
      C    6    0.09013      1.99912     3.88528    0.02548     5.90987
      N    7   -0.49892      1.99950     5.47499    0.02444     7.49892
      C    8   -0.13146      1.99899     4.11124    0.02123     6.13146
      C    9    0.15871      1.99946     3.80926    0.03257     5.84129
      N   10   -0.58151      1.99932     5.56889    0.01329     7.58151
      H   11    0.45057      0.00000     0.54692    0.00251     0.54943
      H   12    0.42930      0.00000     0.56907    0.00162     0.57070
      H   13    0.28775      0.00000     0.70973    0.00251     0.71225
      H   14    0.28124      0.00000     0.71722    0.00153     0.71876
      H   15    0.25416      0.00000     0.74428    0.00156     0.74584
      H   16    0.24394      0.00000     0.75479    0.00127     0.75606
      H   17    0.46839      0.00000     0.52938    0.00223     0.53161
      H   18    0.23027      0.00000     0.76856    0.00117     0.76973
      H   19    0.17741      0.00000     0.81923    0.00336     0.82259
 =======================================================================
   * Total *    0.00000     19.99372    53.76438    0.24190    74.00000

 Normal termination of Gaussian 09 at Tue Feb  1 05:08:57 2022.
