 Gaussian 09, Revision A.02,
 Gaussian 09:  EM64L-G09RevA.02 11-Jun-2009

 --------------------------------------------
 #p b3lyp/6-31+g(d,p) geom=connectivity polar
 --------------------------------------------

 -------------------
 Title Card Required
 -------------------
 Symbolic Z-matrix:
 Charge =  0 Multiplicity = 1

                         Standard orientation:
 ---------------------------------------------------------------------
 Center     Atomic      Atomic             Coordinates (Angstroms)
 Number     Number       Type             X           Y           Z
 ---------------------------------------------------------------------
      1          7           0       -1.645844    1.090505   -0.850246
      2          6           0       -1.746405   -0.295457   -0.402315
      3          6           0       -3.139003   -0.605053    0.092928
      4          8           0       -4.025076    0.288387    0.078441
      5          6           0       -0.731412   -0.559456    0.751362
      6          6           0        0.748069   -0.295608    0.434547
      7          6           0        1.281129    0.983681    0.632160
      8          6           0        1.554316   -1.299766   -0.107890
      9          6           0        2.596193    1.259370    0.274654
     10          6           0        2.874158   -1.026164   -0.455306
     11          6           0        3.394241    0.254007   -0.267220
     12          1           0       -2.487309    1.767361   -0.812134
     13          1           0       -0.726565    1.501641   -1.239663
     14          1           0       -1.529711   -0.964542   -1.256391
     15          1           0       -1.018732    0.037274    1.642260
     16          1           0       -0.833683   -1.605934    1.098256
     17          1           0        0.658023    1.777952    1.022650
     18          1           0        1.150974   -2.288348   -0.276893
     19          1           0        2.988619    2.257504    0.402736
     20          1           0        3.491176   -1.803971   -0.881528
     21          1           0        4.413331    0.471204   -0.548774
     22          1           0       -3.372321   -1.584098    0.456154
 ---------------------------------------------------------------------

 SCF Done:  E(RB3LYP) =  -479.558257052     A.U. after   15 cycles

 The electronic state is 1-A.
 Alpha  occ. eigenvalues --  -19.17112 -14.32852 -10.29465 -10.24934 -10.21223
 Alpha  occ. eigenvalues --  -10.21176 -10.20231 -10.20140 -10.20121 -10.20018
 Alpha  occ. eigenvalues --  -10.19882  -1.04184  -0.88173  -0.86356  -0.78296
 Alpha  occ. eigenvalues --   -0.75823  -0.73754  -0.67087  -0.61690  -0.59680
 Alpha  occ. eigenvalues --   -0.58361  -0.52544  -0.51691  -0.48434  -0.46949
 Alpha  occ. eigenvalues --   -0.45894  -0.44682  -0.43897  -0.43254  -0.41582
 Alpha  occ. eigenvalues --   -0.40517  -0.38228  -0.37300  -0.36464  -0.35034
 Alpha  occ. eigenvalues --   -0.34838  -0.27688  -0.26514  -0.25691  -0.22463
 Alpha virt. eigenvalues --   -0.05768  -0.02165  -0.02133  -0.00389   0.00925
 Alpha virt. eigenvalues --    0.01398   0.02162   0.02952   0.03497   0.04365
 Alpha virt. eigenvalues --    0.04992   0.05816   0.05946   0.06510   0.07880

 Mulliken atomic charges:
              1
     1  N   -0.655738
     2  C   -0.071553
     3  C    0.043614
     4  O   -0.379939
     5  C   -0.366217
     6  C    0.612830
     7  C   -0.339145
     8  C   -0.210794
     9  C   -0.178489
    10  C   -0.180671
    11  C   -0.101254
    12  H    0.326103
    13  H    0.299037
    14  H    0.156011
    15  H    0.154396
    16  H    0.133898
    17  H    0.135721
    18  H    0.115211
    19  H    0.126489
    20  H    0.125510
    21  H    0.123365
    22  H    0.131616
 Sum of Mulliken atomic charges =   0.00000

 Dipole moment (field-independent basis, Debye):
    X=              2.4216    Y=             -1.3720    Z=             -0.1554  Tot=              2.7876
 Quadrupole moment (field-independent basis, Debye-Ang):
   XX=            -77.2603   YY=            -59.5014   ZZ=            -68.8937
   XY=              6.3008   XZ=             -2.5734   YZ=              0.5478

  Exact polarizability: 153.363   1.154 117.227  -9.781   4.545  82.844
 Approx polarizability: 206.772  -2.708 194.593 -20.514  13.799 124.859

 Normal termination of Gaussian 09 at Tue Feb  1 05:11:22 2022.
