 Gaussian 09, Revision A.02,
 Gaussian 09:  EM64L-G09RevA.02 11-Jun-2009

 ----------------------------------------------
 #p b3lyp/6-31+g(d,p) geom=connectivity pop=nbo
 ----------------------------------------------

 -------------------
 Title Card Required
 -------------------
 Symbolic Z-matrix:
 Charge =  0 Multiplicity = 1

                         Standard orientation:
 ---------------------------------------------------------------------
 Center     Atomic      Atomic             Coordinates (Angstroms)
 Number     Number       Type             X           Y           Z
 ---------------------------------------------------------------------
      1          7           0        0.333167   -1.078647    0.666343
      2          6           0       -0.359876    0.274278    0.806590
      3          6           0       -1.652487    0.404469    0.005308
      4          8           0       -2.059505   -0.559784   -0.693350
      5          6           0        0.622894    1.312307    0.284324
      6          6           0        1.321373    0.513148   -0.828782
      7          6           0        1.510670   -0.876589   -0.211819
      8          1           0        0.037920   -1.966041    1.099281
      9          1           0       -0.615760    0.452586    1.840774
     10          1           0        0.064104    2.141459   -0.181476
     11          1           0        1.350476    1.551463    1.069952
     12          1           0        0.665669    0.251339   -1.675166
     13          1           0        2.262572    1.036409   -1.043134
     14          1           0        1.514718   -1.641211   -1.006720
     15          1           0        2.421259   -0.878508    0.407492
     16          1           0       -2.212531    1.315625    0.037665
 ---------------------------------------------------------------------

 SCF Done:  E(RB3LYP) =  -325.896031812     A.U. after   13 cycles

 The electronic state is 1-A.
 Alpha  occ. eigenvalues --  -19.15854 -14.32318 -10.28026 -10.23612 -10.21372
 Alpha  occ. eigenvalues --  -10.20692 -10.19495  -1.02788  -0.90392  -0.77972
 Alpha  occ. eigenvalues --   -0.74919  -0.64428  -0.58454  -0.57758  -0.51777
 Alpha  occ. eigenvalues --   -0.50397  -0.46847  -0.43693  -0.40787  -0.40720
 Alpha  occ. eigenvalues --   -0.38780  -0.37955  -0.35959  -0.34120  -0.33724
 Alpha  occ. eigenvalues --   -0.26006  -0.20812
 Alpha virt. eigenvalues --   -0.04688  -0.00061   0.01746   0.02202   0.02441
 Alpha virt. eigenvalues --    0.04204   0.04425   0.05434   0.06412   0.06820
 Alpha virt. eigenvalues --    0.09064   0.09407   0.09844   0.10761   0.10958

 Mulliken atomic charges:
              1
     1  N   -0.458268
     2  C    0.149688
     3  C    0.012732
     4  O   -0.344444
     5  C   -0.372749
     6  C   -0.192636
     7  C   -0.239178
     8  H    0.294587
     9  H    0.144634
    10  H    0.147201
    11  H    0.159055
    12  H    0.169989
    13  H    0.147061
    14  H    0.134757
    15  H    0.125274
    16  H    0.122296
 Sum of Mulliken atomic charges =   0.00000

 Dipole moment (field-independent basis, Debye):
    X=              1.5940    Y=              1.9483    Z=              1.5499  Tot=              2.9562
 Quadrupole moment (field-independent basis, Debye-Ang):
   XX=            -47.0336   YY=            -41.1788   ZZ=            -43.7538
   XY=             -3.2812   XZ=             -4.2241   YZ=             -1.5199

 Summary of Natural Population Analysis:

                                       Natural Population
                Natural  -----------------------------------------------
    Atom  No    Charge         Core      Valence    Rydberg      Total
 -----------------------------------------------------------------------
      N    1   -0.76819      1.99957     5.74665    0.02197     7.76819
      C    2   -0.16999      1.99919     4.15320    0.01759     6.16999
      C    3    0.38055      1.99943     3.58723    0.03278     5.61945
      O    4   -0.54618      1.99982     6.52362    0.02273     8.54618
      C    5   -0.47911      1.99928     4.46762    0.01221     6.47911
      C    6   -0.49357      1.99936     4.48146    0.01275     6.49357
      C    7   -0.26328      1.99943     4.25053    0.01332     6.26328
      H    8    0.44595      0.00000     0.55176    0.00229     0.55405
      H    9    0.25824      0.00000     0.74014    0.00161     0.74176
      H   10    0.25197      0.00000     0.74660    0.00143     0.74803
      H   11    0.25716      0.00000     0.74127    0.00157     0.74284
      H   12    0.25537      0.00000     0.74247    0.00216     0.74463
      H   13    0.25461      0.00000     0.74397    0.00142     0.74539
      H   14    0.23697      0.00000     0.76156    0.00146     0.76303
      H   15    0.21363      0.00000     0.78464    0.00173     0.78637
      H   16    0.16586      0.00000     0.83019    0.00394     0.83414
 =======================================================================
   * Total *    0.00000     13.99609    39.85293    0.15098    54.00000

 Normal termination of Gaussian 09 at Tue Feb  1 05:08:27 2022.
