 Gaussian 09, Revision A.02,
 Gaussian 09:  EM64L-G09RevA.02 11-Jun-2009

 ----------------------------------------------
 #p b3lyp/6-31+g(d,p) geom=connectivity pop=nbo
 ----------------------------------------------

 -------------------
 Title Card Required
 -------------------
 Symbolic Z-matrix:
 Charge =  0 Multiplicity = 1

                         Standard orientation:
 ---------------------------------------------------------------------
 Center     Atomic      Atomic             Coordinates (Angstroms)
 Number     Number       Type             X           Y           Z
 ---------------------------------------------------------------------
      1          7           0        0.319474    1.506412   -0.293327
      2          6           0        0.064800    0.410312    0.636018
      3          6           0        1.061105   -0.707219    0.442023
      4          8           0        1.956700   -0.606310   -0.436212
      5          6           0       -1.393607   -0.096552    0.503639
      6          8           0       -1.636366   -0.776944   -0.732178
      7          1           0        1.128080    1.474856   -1.008160
      8          1           0       -0.289844    2.398560   -0.307556
      9          1           0        0.209339    0.794173    1.662926
     10          1           0       -1.623343   -0.792253    1.334645
     11          1           0       -2.118310    0.732507    0.618019
     12          1           0       -1.504436   -0.140856   -1.440815
     13          1           0        1.005733   -1.585082    1.051277
 ---------------------------------------------------------------------

 SCF Done:  E(RB3LYP) =  -323.713284776     A.U. after   13 cycles

 The electronic state is 1-A.
 Alpha  occ. eigenvalues --  -19.17250 -19.16867 -14.34242 -10.29773 -10.25976
 Alpha  occ. eigenvalues --  -10.25305  -1.04464  -1.03470  -0.88279  -0.75355
 Alpha  occ. eigenvalues --   -0.67241  -0.59215  -0.53729  -0.49557  -0.48826
 Alpha  occ. eigenvalues --   -0.47712  -0.44845  -0.42997  -0.40429  -0.37578
 Alpha  occ. eigenvalues --   -0.35084  -0.30064  -0.27554  -0.23797
 Alpha virt. eigenvalues --   -0.05743  -0.00726   0.00562   0.02405   0.02861
 Alpha virt. eigenvalues --    0.04594   0.05427   0.06224   0.08126   0.08788
 Alpha virt. eigenvalues --    0.10992   0.11464   0.12601   0.13476   0.15105

 Mulliken atomic charges:
              1
     1  N   -0.722210
     2  C    0.080973
     3  C    0.121430
     4  O   -0.393684
     5  C   -0.121427
     6  O   -0.504056
     7  H    0.328898
     8  H    0.294674
     9  H    0.152661
    10  H    0.138351
    11  H    0.131263
    12  H    0.358806
    13  H    0.134323
 Sum of Mulliken atomic charges =   0.00000

 Dipole moment (field-independent basis, Debye):
    X=             -1.6751    Y=              2.0529    Z=              1.9189  Tot=              3.2715
 Quadrupole moment (field-independent basis, Debye-Ang):
   XX=            -43.7872   YY=            -35.9513   ZZ=            -33.6820
   XY=             -2.7998   XZ=              0.8242   YZ=             -4.3865

 Summary of Natural Population Analysis:

                                       Natural Population
                Natural  -----------------------------------------------
    Atom  No    Charge         Core      Valence    Rydberg      Total
 -----------------------------------------------------------------------
      N    1   -1.02263      1.99963     6.00073    0.02227     8.02263
      C    2   -0.21345      1.99922     4.19693    0.01730     6.21345
      C    3    0.40744      1.99943     3.56035    0.03278     5.59256
      O    4   -0.55226      1.99983     6.53024    0.02219     8.55226
      C    5   -0.12197      1.99929     4.10310    0.01959     6.12197
      O    6   -0.77968      1.99984     6.75908    0.02076     8.77968
      H    7    0.45892      0.00000     0.53850    0.00258     0.54108
      H    8    0.43184      0.00000     0.56640    0.00175     0.56816
      H    9    0.25670      0.00000     0.74079    0.00251     0.74330
      H   10    0.22964      0.00000     0.76864    0.00172     0.77036
      H   11    0.21606      0.00000     0.78203    0.00191     0.78394
      H   12    0.50755      0.00000     0.48742    0.00503     0.49245
      H   13    0.18182      0.00000     0.81488    0.00329     0.81818
 =======================================================================
   * Total *    0.00000     11.99722    35.84909    0.15368    48.00000

 Normal termination of Gaussian 09 at Tue Feb  1 05:08:10 2022.
