 Gaussian 09, Revision A.02,
 Gaussian 09:  EM64L-G09RevA.02 11-Jun-2009

 ----------------------------------------------
 #p b3lyp/6-31+g(d,p) geom=connectivity pop=nbo
 ----------------------------------------------

 -------------------
 Title Card Required
 -------------------
 Symbolic Z-matrix:
 Charge =  0 Multiplicity = 1

                         Standard orientation:
 ---------------------------------------------------------------------
 Center     Atomic      Atomic             Coordinates (Angstroms)
 Number     Number       Type             X           Y           Z
 ---------------------------------------------------------------------
      1          7           0        0.914517    1.553919    0.024359
      2          6           0        0.373846    0.261831    0.435897
      3          6           0        1.370906   -0.845174    0.191376
      4          8           0        2.495421   -0.580271   -0.307484
      5          6           0       -0.973043   -0.032284   -0.306812
      6          8           0       -1.946323    0.951956    0.015865
      7          6           0       -1.657792   -1.376116    0.024065
      8          1           0        1.904896    1.652126   -0.395082
      9          1           0        0.348250    2.468739    0.121058
     10          1           0        0.179096    0.295950    1.523463
     11          1           0       -0.783245    0.002530   -1.401424
     12          1           0       -2.612554   -1.501899   -0.519984
     13          1           0       -1.036936   -2.248292   -0.254984
     14          1           0       -1.881385   -1.468242    1.103871
     15          1           0       -2.717414    0.753609   -0.523896
     16          1           0        1.121384   -1.854976    0.442254
 ---------------------------------------------------------------------

 SCF Done:  E(RB3LYP) =  -363.027454316     A.U. after   13 cycles

 The electronic state is 1-A.
 Alpha  occ. eigenvalues --  -19.17366 -19.16957 -14.32767 -10.29742 -10.26422
 Alpha  occ. eigenvalues --  -10.25006 -10.20231  -1.04721  -1.04312  -0.87243
 Alpha  occ. eigenvalues --   -0.77300  -0.71016  -0.64228  -0.58023  -0.54183
 Alpha  occ. eigenvalues --   -0.49902  -0.47989  -0.47016  -0.44576  -0.43236
 Alpha  occ. eigenvalues --   -0.41520  -0.39598  -0.39020  -0.37432  -0.34727
 Alpha  occ. eigenvalues --   -0.28856  -0.27793  -0.22444
 Alpha virt. eigenvalues --   -0.06027  -0.00872   0.01046   0.01324   0.02812
 Alpha virt. eigenvalues --    0.04119   0.04668   0.06207   0.07062   0.07639
 Alpha virt. eigenvalues --    0.08684   0.09290   0.10590   0.11453   0.12064

 Mulliken atomic charges:
              1
     1  N   -0.663862
     2  C    0.003283
     3  C    0.069341
     4  O   -0.387564
     5  C    0.184974
     6  O   -0.512857
     7  C   -0.541603
     8  H    0.322056
     9  H    0.308079
    10  H    0.163543
    11  H    0.137535
    12  H    0.139285
    13  H    0.136709
    14  H    0.168980
    15  H    0.340059
    16  H    0.132042
 Sum of Mulliken atomic charges =   0.00000

 Dipole moment (field-independent basis, Debye):
    X=             -2.9434    Y=             -1.2343    Z=             -0.1170  Tot=              3.1938
 Quadrupole moment (field-independent basis, Debye-Ang):
   XX=            -48.2662   YY=            -41.7362   ZZ=            -43.7329
   XY=              3.3029   XZ=              4.4063   YZ=             -1.9531

 Summary of Natural Population Analysis:

                                       Natural Population
                Natural  -----------------------------------------------
    Atom  No    Charge         Core      Valence    Rydberg      Total
 -----------------------------------------------------------------------
      N    1   -1.01081      1.99963     5.99046    0.02072     8.01081
      C    2   -0.19102      1.99918     4.17188    0.01997     6.19102
      C    3    0.39701      1.99942     3.57252    0.03105     5.60299
      O    4   -0.54704      1.99983     6.52504    0.02218     8.54704
      C    5    0.06096      1.99920     3.91839    0.02145     5.93904
      O    6   -0.77872      1.99980     6.75939    0.01953     8.77872
      C    7   -0.72887      1.99949     4.72065    0.00873     6.72887
      H    8    0.45312      0.00000     0.54437    0.00250     0.54688
      H    9    0.44561      0.00000     0.55265    0.00175     0.55439
      H   10    0.26514      0.00000     0.73240    0.00246     0.73486
      H   11    0.22557      0.00000     0.77191    0.00252     0.77443
      H   12    0.24282      0.00000     0.75589    0.00129     0.75718
      H   13    0.23630      0.00000     0.76220    0.00151     0.76370
      H   14    0.24953      0.00000     0.74877    0.00170     0.75047
      H   15    0.50153      0.00000     0.49455    0.00392     0.49847
      H   16    0.17888      0.00000     0.81819    0.00293     0.82112
 =======================================================================
   * Total *    0.00000     13.99654    41.83925    0.16421    56.00000

 Normal termination of Gaussian 09 at Tue Feb  1 05:00:33 2022.
