 Gaussian 09, Revision A.02,
 Gaussian 09:  EM64L-G09RevA.02 11-Jun-2009

 ----------------------------------------------
 #p b3lyp/6-31+g(d,p) geom=connectivity pop=nbo
 ----------------------------------------------

 -------------------
 Title Card Required
 -------------------
 Symbolic Z-matrix:
 Charge =  0 Multiplicity = 1

                         Standard orientation:
 ---------------------------------------------------------------------
 Center     Atomic      Atomic             Coordinates (Angstroms)
 Number     Number       Type             X           Y           Z
 ---------------------------------------------------------------------
      1          7           0        1.364763    0.419266    0.000000
      2          6           0        0.000000    0.938075    0.000000
      3          6           0       -1.007179   -0.186687    0.000000
      4          8           0       -0.615037   -1.382427    0.000000
      5          1           0        2.225259    1.072409    0.000000
      6          1           0        1.573502   -0.640311    0.000000
      7          1           0       -0.167168    1.575608    0.888000
      8          1           0       -0.167168    1.575608   -0.888000
      9          1           0       -2.054402    0.032913    0.000000
 ---------------------------------------------------------------------

 SCF Done:  E(RB3LYP) =  -209.175878783     A.U. after   12 cycles

 The electronic state is 1-A'.
 Alpha  occ. eigenvalues --  -19.17043 -14.33247 -10.29634 -10.24496  -1.04116
 Alpha  occ. eigenvalues --   -0.86818  -0.72226  -0.59316  -0.51887  -0.46595
 Alpha  occ. eigenvalues --   -0.46451  -0.43928  -0.40566  -0.36999  -0.27632
 Alpha  occ. eigenvalues --   -0.22642
 Alpha virt. eigenvalues --   -0.05362  -0.00102   0.01315   0.03357   0.04506
 Alpha virt. eigenvalues --    0.06318   0.07615   0.09129   0.09565   0.13193
 Alpha virt. eigenvalues --    0.13777   0.14780   0.17732   0.19496   0.20822

 Mulliken atomic charges:
              1
     1  N   -0.682194
     2  C   -0.191094
     3  C    0.197470
     4  O   -0.392809
     5  H    0.294096
     6  H    0.328681
     7  H    0.157804
     8  H    0.157804
     9  H    0.130242
 Sum of Mulliken atomic charges =   0.00000

 Dipole moment (field-independent basis, Debye):
    X=             -0.2877    Y=              2.9087    Z=              0.0000  Tot=              2.9229
 Quadrupole moment (field-independent basis, Debye-Ang):
   XX=            -20.7564   YY=            -26.7239   ZZ=            -26.2904
   XY=             -1.4312   XZ=              0.0000   YZ=              0.0000

 Summary of Natural Population Analysis:

                                       Natural Population
                Natural  -----------------------------------------------
    Atom  No    Charge         Core      Valence    Rydberg      Total
 -----------------------------------------------------------------------
      N    1   -1.02116      1.99967     5.99891    0.02257     8.02116
      C    2   -0.37443      1.99938     4.36171    0.01334     6.37443
      C    3    0.38750      1.99950     3.58288    0.03012     5.61250
      O    4   -0.55664      1.99983     6.53470    0.02212     8.55664
      H    5    0.43205      0.00000     0.56639    0.00155     0.56795
      H    6    0.45575      0.00000     0.54185    0.00240     0.54425
      H    7    0.25048      0.00000     0.74740    0.00211     0.74952
      H    8    0.25048      0.00000     0.74740    0.00211     0.74952
      H    9    0.17596      0.00000     0.82070    0.00334     0.82404
 =======================================================================
   * Total *    0.00000      7.99838    23.90195    0.09967    32.00000

 Normal termination of Gaussian 09 at Tue Feb  1 05:00:40 2022.
