 Gaussian 09, Revision A.02,
 Gaussian 09:  EM64L-G09RevA.02 11-Jun-2009

 ----------------------------------------------
 #p b3lyp/6-31+g(d,p) geom=connectivity pop=nbo
 ----------------------------------------------

 -------------------
 Title Card Required
 -------------------
 Symbolic Z-matrix:
 Charge =  0 Multiplicity = 1

                         Standard orientation:
 ---------------------------------------------------------------------
 Center     Atomic      Atomic             Coordinates (Angstroms)
 Number     Number       Type             X           Y           Z
 ---------------------------------------------------------------------
      1          7           0        1.839554    1.466218   -0.132305
      2          6           0        1.630482    0.158326    0.483237
      3          6           0        2.805954   -0.753822    0.227935
      4          8           0        3.788696   -0.341427   -0.441181
      5          6           0        0.313798   -0.470892   -0.049702
      6          6           0       -0.981792    0.303267    0.272513
      7         16           0       -2.414822   -0.700017   -0.155134
      8          6           0       -3.675378    0.577293   -0.047391
      9          1           0        2.736099    1.699411   -0.687264
     10          1           0        1.106987    2.256209   -0.059110
     11          1           0        1.554864    0.291836    1.578415
     12          1           0        0.380936   -0.610423   -1.147681
     13          1           0        0.204777   -1.493836    0.359422
     14          1           0       -1.036322    0.579096    1.342071
     15          1           0       -1.012029    1.249217   -0.301418
     16          1           0       -3.667566    1.059485    0.946762
     17          1           0       -4.677896    0.147575   -0.216560
     18          1           0       -3.501027    1.355557   -0.812379
     19          1           0        2.803506   -1.750999    0.615921
 ---------------------------------------------------------------------

 SCF Done:  E(RB3LYP) =  -725.311057881     A.U. after   14 cycles

 The electronic state is 1-A.
 Alpha  occ. eigenvalues --  -88.88135 -19.17298 -14.33371 -10.29672 -10.25178
 Alpha  occ. eigenvalues --  -10.23040 -10.22204 -10.21438  -7.94236  -5.90767
 Alpha  occ. eigenvalues --   -5.90396  -5.89671  -1.04368  -0.88254  -0.82326
 Alpha  occ. eigenvalues --   -0.76528  -0.71947  -0.64898  -0.59703  -0.58728
 Alpha  occ. eigenvalues --   -0.52155  -0.49255  -0.46287  -0.45642  -0.44483
 Alpha  occ. eigenvalues --   -0.44166  -0.42701  -0.41340  -0.39199  -0.37838
 Alpha  occ. eigenvalues --   -0.36353  -0.35851  -0.32429  -0.27665  -0.23064
 Alpha  occ. eigenvalues --   -0.22870
 Alpha virt. eigenvalues --   -0.05904  -0.00796  -0.00341   0.01073   0.02244
 Alpha virt. eigenvalues --    0.02780   0.03624   0.04590   0.04720   0.05247
 Alpha virt. eigenvalues --    0.06179   0.06643   0.07377   0.08345   0.08778

 Mulliken atomic charges:
              1
     1  N   -0.652052
     2  C   -0.018924
     3  C    0.090433
     4  O   -0.384108
     5  C   -0.084483
     6  C   -0.550097
     7  S    0.065569
     8  C   -0.555160
     9  H    0.327307
    10  H    0.288187
    11  H    0.152762
    12  H    0.179175
    13  H    0.144957
    14  H    0.169670
    15  H    0.166619
    16  H    0.171929
    17  H    0.178468
    18  H    0.175792
    19  H    0.133955
 Sum of Mulliken atomic charges =   0.00000

 Dipole moment (field-independent basis, Debye):
    X=             -2.5026    Y=              1.2270    Z=              1.5883  Tot=              3.2080
 Quadrupole moment (field-independent basis, Debye-Ang):
   XX=            -68.2187   YY=            -55.4559   ZZ=            -59.3063
   XY=             -5.6070   XZ=              3.2827   YZ=             -1.8461

 Summary of Natural Population Analysis:

                                       Natural Population
                Natural  -----------------------------------------------
    Atom  No    Charge         Core      Valence    Rydberg      Total
 -----------------------------------------------------------------------
      N    1   -1.01270      1.99962     5.99236    0.02072     8.01270
      C    2   -0.18009      1.99922     4.16196    0.01892     6.18009
      C    3    0.40215      1.99943     3.56728    0.03115     5.59785
      O    4   -0.55059      1.99983     6.52896    0.02180     8.55059
      C    5   -0.48135      1.99934     4.46919    0.01282     6.48135
      C    6   -0.62451      1.99940     4.61072    0.01439     6.62451
      S    7    0.21486      9.99922     5.74551    0.04041    15.78514
      C    8   -0.86259      1.99957     4.85310    0.00992     6.86259
      H    9    0.45700      0.00000     0.54049    0.00251     0.54300
      H   10    0.42889      0.00000     0.56941    0.00170     0.57111
      H   11    0.25405      0.00000     0.74352    0.00243     0.74595
      H   12    0.26596      0.00000     0.73153    0.00251     0.73404
      H   13    0.24454      0.00000     0.75320    0.00226     0.75546
      H   14    0.24753      0.00000     0.75051    0.00196     0.75247
      H   15    0.24855      0.00000     0.74909    0.00236     0.75145
      H   16    0.24900      0.00000     0.74936    0.00163     0.75100
      H   17    0.27085      0.00000     0.72810    0.00105     0.72915
      H   18    0.24940      0.00000     0.74895    0.00164     0.75060
      H   19    0.17903      0.00000     0.81768    0.00329     0.82097
 =======================================================================
   * Total *    0.00000     23.99562    47.81093    0.19346    72.00000

 Normal termination of Gaussian 09 at Tue Feb  1 05:08:42 2022.
