 Gaussian 09, Revision A.02,
 Gaussian 09:  EM64L-G09RevA.02 11-Jun-2009

 ----------------------------------------------
 #p b3lyp/6-31+g(d,p) geom=connectivity pop=nbo
 ----------------------------------------------

 -------------------
 Title Card Required
 -------------------
 Symbolic Z-matrix:
 Charge =  0 Multiplicity = 1

                         Standard orientation:
 ---------------------------------------------------------------------
 Center     Atomic      Atomic             Coordinates (Angstroms)
 Number     Number       Type             X           Y           Z
 ---------------------------------------------------------------------
      1          7           0        2.478155    1.342579    0.187216
      2          6           0        1.576380    0.258169    0.565062
      3          6           0        2.020693   -1.050888   -0.042142
      4          8           0        3.049725   -1.091903   -0.765317
      5          6           0        0.146272    0.621715    0.109601
      6          6           0       -0.976842   -0.406887    0.470463
      7          6           0       -2.411608   -0.142475   -0.001933
      8          8           0       -3.307244   -0.940680    0.225279
      9          7           0       -2.687259    0.941131   -0.682628
     10          1           0        3.241415    1.196894   -0.375508
     11          1           0        2.342861    2.244684    0.487113
     12          1           0        1.600802    0.143264    1.664812
     13          1           0       -0.127570    1.605731    0.540411
     14          1           0        0.153288    0.776680   -0.989185
     15          1           0       -0.730528   -1.402681    0.058535
     16          1           0       -1.011395   -0.563666    1.564409
     17          1           0       -1.883389    1.531692   -0.897326
     18          1           0       -3.651569    1.007992   -1.013837
     19          1           0        1.460591   -1.943697    0.142459
 ---------------------------------------------------------------------

 SCF Done:  E(RB3LYP) =  -456.516522603     A.U. after   14 cycles

 The electronic state is 1-A.
 Alpha  occ. eigenvalues --  -19.17933 -19.11936 -14.38029 -14.32350 -10.30271
 Alpha  occ. eigenvalues --  -10.29873 -10.26071 -10.22875 -10.22148  -1.05311
 Alpha  occ. eigenvalues --   -1.05013  -0.92991  -0.90765  -0.80926  -0.73851
 Alpha  occ. eigenvalues --   -0.66903  -0.60563  -0.59194  -0.57582  -0.54669
 Alpha  occ. eigenvalues --   -0.50086  -0.48784  -0.46589  -0.46125  -0.45713
 Alpha  occ. eigenvalues --   -0.42884  -0.40748  -0.40285  -0.38877  -0.37430
 Alpha  occ. eigenvalues --   -0.36807  -0.28397  -0.28066  -0.26377  -0.24118
 Alpha virt. eigenvalues --   -0.06725  -0.01297   0.00142   0.00647   0.01051
 Alpha virt. eigenvalues --    0.02617   0.03717   0.04276   0.04505   0.05697
 Alpha virt. eigenvalues --    0.06476   0.07925   0.08047   0.09390   0.09886

 Mulliken atomic charges:
              1
     1  N   -0.708184
     2  C    0.244552
     3  C    0.056954
     4  O   -0.386702
     5  C   -0.558835
     6  C    0.027702
     7  C    0.210261
     8  O   -0.545056
     9  N   -0.517019
    10  H    0.320423
    11  H    0.290285
    12  H    0.158598
    13  H    0.147470
    14  H    0.157764
    15  H    0.164284
    16  H    0.178038
    17  H    0.286536
    18  H    0.338174
    19  H    0.134754
 Sum of Mulliken atomic charges =   0.00000

 Dipole moment (field-independent basis, Debye):
    X=              0.3102    Y=              3.6670    Z=              0.3705  Tot=              3.6987
 Quadrupole moment (field-independent basis, Debye-Ang):
   XX=            -75.4237   YY=            -52.7714   ZZ=            -54.5767
   XY=             -5.7824   XZ=              8.9645   YZ=             -2.4085

 Summary of Natural Population Analysis:

                                       Natural Population
                Natural  -----------------------------------------------
    Atom  No    Charge         Core      Valence    Rydberg      Total
 -----------------------------------------------------------------------
      N    1   -0.94947      1.99967     5.92368    0.02612     7.94947
      C    2   -0.17758      1.99923     4.16081    0.01754     6.17758
      C    3    0.39622      1.99943     3.57327    0.03108     5.60378
      O    4   -0.54668      1.99983     6.52474    0.02211     8.54668
      C    5   -0.49296      1.99936     4.48100    0.01261     6.49296
      C    6   -0.56702      1.99928     4.55487    0.01287     6.56702
      C    7    0.66674      1.99941     3.29161    0.04224     5.33326
      O    8   -0.65553      1.99979     6.63281    0.02293     8.65553
      N    9   -0.86363      1.99933     5.84869    0.01561     7.86363
      H   10    0.42639      0.00000     0.57099    0.00261     0.57361
      H   11    0.40613      0.00000     0.59217    0.00170     0.59387
      H   12    0.25863      0.00000     0.73945    0.00192     0.74137
      H   13    0.24815      0.00000     0.75011    0.00174     0.75185
      H   14    0.25101      0.00000     0.74654    0.00245     0.74899
      H   15    0.26829      0.00000     0.73018    0.00153     0.73171
      H   16    0.27362      0.00000     0.72470    0.00168     0.72638
      H   17    0.42716      0.00000     0.57035    0.00249     0.57284
      H   18    0.45071      0.00000     0.54464    0.00465     0.54929
      H   19    0.17982      0.00000     0.81724    0.00293     0.82018
 =======================================================================
   * Total *    0.00000     17.99531    51.77786    0.22682    70.00000

 Normal termination of Gaussian 09 at Tue Feb  1 05:01:14 2022.
