 Gaussian 09, Revision A.02,
 Gaussian 09:  EM64L-G09RevA.02 11-Jun-2009

 ----------------------------------------------
 #p b3lyp/6-31+g(d,p) geom=connectivity pop=nbo
 ----------------------------------------------

 -------------------
 Title Card Required
 -------------------
 Symbolic Z-matrix:
 Charge = -1 Multiplicity = 1

                         Standard orientation:
 ---------------------------------------------------------------------
 Center     Atomic      Atomic             Coordinates (Angstroms)
 Number     Number       Type             X           Y           Z
 ---------------------------------------------------------------------
      1          7           0        1.900979   -0.860625    1.180940
      2          6           0        1.603475   -0.752138   -0.244523
      3          6           0        2.163214    0.528209   -0.817253
      4          8           0        2.788915    1.328861   -0.074943
      5          6           0        0.063399   -0.828330   -0.434024
      6          6           0       -0.791622    0.343398    0.153784
      7          6           0       -2.316692    0.244076    0.070240
      8          8           0       -3.065243    1.095849    0.530254
      9          8           0       -2.758762   -0.878164   -0.562872
     10          1           0        2.452216   -0.098381    1.710206
     11          1           0        1.582009   -1.709166    1.768062
     12          1           0        2.084493   -1.596473   -0.772303
     13          1           0       -0.158346   -0.913281   -1.515302
     14          1           0       -0.299181   -1.784646   -0.008503
     15          1           0       -0.539231    0.488565    1.220716
     16          1           0       -0.506516    1.299505   -0.324082
     17          1           0        2.027780    0.754589   -1.854225
 ---------------------------------------------------------------------

 SCF Done:  E(RB3LYP) =  -475.824902256     A.U. after   19 cycles

 The electronic state is 1-A.
 Alpha  occ. eigenvalues --  -19.06566 -18.92576 -18.89956 -14.22497 -10.18911
 Alpha  occ. eigenvalues --  -10.13341 -10.09862 -10.06852 -10.04280  -0.93768
 Alpha  occ. eigenvalues --   -0.84128  -0.76777  -0.72001  -0.64385  -0.58577
 Alpha  occ. eigenvalues --   -0.51131  -0.46543  -0.40541  -0.37001  -0.35104
 Alpha  occ. eigenvalues --   -0.33532  -0.31436  -0.30199  -0.28942  -0.26204
 Alpha  occ. eigenvalues --   -0.24099  -0.23206  -0.22641  -0.19208  -0.17326
 Alpha  occ. eigenvalues --   -0.16715  -0.11846  -0.06414  -0.05638  -0.03562
 Alpha virt. eigenvalues --    0.04950   0.09301   0.10620   0.12053   0.13703
 Alpha virt. eigenvalues --    0.15858   0.16549   0.17315   0.18016   0.19093
 Alpha virt. eigenvalues --    0.20293   0.21240   0.21464   0.22538   0.22754

 Mulliken atomic charges:
              1
     1  N   -0.694265
     2  C    0.055538
     3  C    0.077775
     4  O   -0.412578
     5  C   -0.233390
     6  C   -0.264888
     7  C    0.302504
     8  O   -0.567148
     9  O   -0.683411
    10  H    0.306792
    11  H    0.283873
    12  H    0.128611
    13  H    0.146510
    14  H    0.158306
    15  H    0.155410
    16  H    0.123498
    17  H    0.116863
 Sum of Mulliken atomic charges =  -1.00000

 Dipole moment (field-independent basis, Debye):
    X=             11.1676    Y=             -1.8743    Z=             -0.4939  Tot=             11.3346
 Quadrupole moment (field-independent basis, Debye-Ang):
   XX=           -113.2670   YY=            -66.2415   ZZ=            -55.0254
   XY=             -4.6415   XZ=             -3.1521   YZ=             -5.6221

 Summary of Natural Population Analysis:

                                       Natural Population
                Natural  -----------------------------------------------
    Atom  No    Charge         Core      Valence    Rydberg      Total
 -----------------------------------------------------------------------
      N    1   -1.01425      1.99962     5.99234    0.02228     8.01425
      C    2   -0.18391      1.99920     4.16578    0.01893     6.18391
      C    3    0.40431      1.99942     3.56377    0.03251     5.59569
      O    4   -0.58775      1.99982     6.56550    0.02243     8.58775
      C    5   -0.47153      1.99935     4.45641    0.01576     6.47153
      C    6   -0.57262      1.99922     4.55695    0.01645     6.57262
      C    7    0.75214      1.99950     3.19246    0.05590     5.24786
      O    8   -0.74111      1.99977     6.71669    0.02465     8.74111
      O    9   -0.85738      1.99986     6.84537    0.01215     8.85738
      H   10    0.44339      0.00000     0.55393    0.00268     0.55661
      H   11    0.42577      0.00000     0.57238    0.00185     0.57423
      H   12    0.24409      0.00000     0.75349    0.00241     0.75591
      H   13    0.24625      0.00000     0.75141    0.00234     0.75375
      H   14    0.26237      0.00000     0.73534    0.00229     0.73763
      H   15    0.24899      0.00000     0.74860    0.00241     0.75101
      H   16    0.23061      0.00000     0.76721    0.00218     0.76939
      H   17    0.17064      0.00000     0.82577    0.00359     0.82936
 =======================================================================
   * Total *   -1.00000     17.99576    51.76341    0.24083    70.00000

 1\1\GINC-NODE3\SP\RB3LYP\6-31+G(d,p)\C5H8N1O3(1-)\ROOT\01-Feb-2022\0\\
 #p b3lyp/6-31+g(d,p) geom=connectivity pop=nbo\\Title Card Required\\-
 1,1\N,0,0.145,-0.223,0.\C,0,1.592,-0.027,0.\C,0,1.938,1.443,0.\O,0,1.0
 213407,2.30515212,0.\C,0,2.187,-0.746,-1.242\C,0,1.796,-0.188,-2.651\C
 ,0,2.286,-0.938,-3.892\O,0,2.004,-0.594,-5.032\O,0,3.063,-2.02,-3.607\
 H,0,-0.545,0.607,0.\H,0,-0.298,-1.208,0.\H,0,2.01,-0.472,0.922\H,0,3.2
 91,-0.743,-1.16\H,0,1.916,-1.819,-1.194\H,0,0.695,-0.122,-2.732\H,0,2.
 138,0.859,-2.754\H,0,2.96257371,1.75146184,0.\\Version=EM64L-G09RevA.0

 Normal termination of Gaussian 09 at Tue Feb  1 05:02:49 2022.
